 Entering Link 1 = C:\G09W\l1.exe PID=     21216.
  
 Copyright (c) 1988,1990,1992,1993,1995,1998,2003,2009, Gaussian, Inc.
                  All Rights Reserved.
  
 This is part of the Gaussian(R) 09 program.  It is based on
 the Gaussian(R) 03 system (copyright 2003, Gaussian, Inc.),
 the Gaussian(R) 98 system (copyright 1998, Gaussian, Inc.),
 the Gaussian(R) 94 system (copyright 1995, Gaussian, Inc.),
 the Gaussian 92(TM) system (copyright 1992, Gaussian, Inc.),
 the Gaussian 90(TM) system (copyright 1990, Gaussian, Inc.),
 the Gaussian 88(TM) system (copyright 1988, Gaussian, Inc.),
 the Gaussian 86(TM) system (copyright 1986, Carnegie Mellon
 University), and the Gaussian 82(TM) system (copyright 1983,
 Carnegie Mellon University). Gaussian is a federally registered
 trademark of Gaussian, Inc.
  
 This software contains proprietary and confidential information,
 including trade secrets, belonging to Gaussian, Inc.
  
 This software is provided under written license and may be
 used, copied, transmitted, or stored only in accord with that
 written license.
  
 The following legend is applicable only to US Government
 contracts under FAR:
  
                    RESTRICTED RIGHTS LEGEND
  
 Use, reproduction and disclosure by the US Government is
 subject to restrictions as set forth in subparagraphs (a)
 and (c) of the Commercial Computer Software - Restricted
 Rights clause in FAR 52.227-19.
  
 Gaussian, Inc.
 340 Quinnipiac St., Bldg. 40, Wallingford CT 06492
  
  
 ---------------------------------------------------------------
 Warning -- This program may not be used in any manner that
 competes with the business of Gaussian, Inc. or will provide
 assistance to any competitor of Gaussian, Inc.  The licensee
 of this program is prohibited from giving any competitor of
 Gaussian, Inc. access to this program.  By using this program,
 the user acknowledges that Gaussian, Inc. is engaged in the
 business of creating and licensing software in the field of
 computational chemistry and represents and warrants to the
 licensee that it is not a competitor of Gaussian, Inc. and that
 it will not use this program in any manner prohibited above.
 ---------------------------------------------------------------
  

 Cite this work as:
 Gaussian 09, Revision A.02,
 M. J. Frisch, G. W. Trucks, H. B. Schlegel, G. E. Scuseria, 
 M. A. Robb, J. R. Cheeseman, G. Scalmani, V. Barone, B. Mennucci, 
 G. A. Petersson, H. Nakatsuji, M. Caricato, X. Li, H. P. Hratchian, 
 A. F. Izmaylov, J. Bloino, G. Zheng, J. L. Sonnenberg, M. Hada, 
 M. Ehara, K. Toyota, R. Fukuda, J. Hasegawa, M. Ishida, T. Nakajima, 
 Y. Honda, O. Kitao, H. Nakai, T. Vreven, J. A. Montgomery, Jr., 
 J. E. Peralta, F. Ogliaro, M. Bearpark, J. J. Heyd, E. Brothers, 
 K. N. Kudin, V. N. Staroverov, R. Kobayashi, J. Normand, 
 K. Raghavachari, A. Rendell, J. C. Burant, S. S. Iyengar, J. Tomasi, 
 M. Cossi, N. Rega, J. M. Millam, M. Klene, J. E. Knox, J. B. Cross, 
 V. Bakken, C. Adamo, J. Jaramillo, R. Gomperts, R. E. Stratmann, 
 O. Yazyev, A. J. Austin, R. Cammi, C. Pomelli, J. W. Ochterski, 
 R. L. Martin, K. Morokuma, V. G. Zakrzewski, G. A. Voth, 
 P. Salvador, J. J. Dannenberg, S. Dapprich, A. D. Daniels, 
 O. Farkas, J. B. Foresman, J. V. Ortiz, J. Cioslowski, 
 and D. J. Fox, Gaussian, Inc., Wallingford CT, 2009.
 
 ******************************************
 Gaussian 09:  IA32W-G09RevA.02 11-Jun-2009
                16-Jan-2025 
 ******************************************
 %chk=C:\G09W\Final\100tdenergy.chk
 ----------------------------------------------
 # td b3lyp/3-21g maxdisk=2GB geom=connectivity
 ----------------------------------------------
 1/38=1,57=2/1;
 2/12=2,17=6,18=5,40=1/2;
 3/5=5,11=2,16=1,25=1,30=1,74=-5/1,2,8,3;
 4//1;
 5/5=2,38=5/2;
 8/6=1,10=1/1;
 9/42=1/14;
 6/7=2,8=2,9=2,10=2/1;
 99/5=1,9=1/99;
 -------------------
 Title Card Required
 -------------------
 Symbolic Z-matrix:
 Charge =  0 Multiplicity = 1
 C                    -2.33356  -0.70394  -0.16414 
 C                    -0.93927  -0.82029  -0.08454 
 C                    -0.16477   0.28313   0.29826 
 C                    -0.78457   1.50291   0.60145 
 C                    -2.17886   1.61926   0.52184 
 C                    -2.95336   0.51583   0.13905 
 H                    -2.92491  -1.54643  -0.45642 
 H                    -0.46604  -1.75162  -0.31603 
 H                    -0.19322   2.34539   0.89372 
 H                    -2.65209   2.55058   0.75334 
 C                     1.36741   0.15527   0.38573 
 N                     2.5082    0.06008   0.45086 
 N                    -4.4159    0.63788   0.05555 
 C                    -5.02498   0.06939   1.26663 
 H                    -4.67134   0.59944   2.12621 
 H                    -6.08955   0.15822   1.20585 
 H                    -4.7574   -0.96331   1.34937 
 C                    -4.78352   2.05663  -0.05812 
 H                    -4.34017   2.47043  -0.93966 
 H                    -5.84809   2.14546  -0.1189 
 H                    -4.42988   2.58668   0.80146 
 
                          Input orientation:                          
 ---------------------------------------------------------------------
 Center     Atomic      Atomic             Coordinates (Angstroms)
 Number     Number       Type             X           Y           Z
 ---------------------------------------------------------------------
      1          6           0       -2.333562   -0.703941   -0.164145
      2          6           0       -0.939271   -0.820292   -0.084539
      3          6           0       -0.164774    0.283131    0.298257
      4          6           0       -0.784569    1.502907    0.601449
      5          6           0       -2.178860    1.619258    0.521844
      6          6           0       -2.953356    0.515835    0.139047
      7          1           0       -2.924907   -1.546429   -0.456419
      8          1           0       -0.466044   -1.751618   -0.316031
      9          1           0       -0.193224    2.345395    0.893723
     10          1           0       -2.652087    2.550583    0.753340
     11          6           0        1.367414    0.155273    0.385732
     12          7           0        2.508198    0.060079    0.450862
     13          7           0       -4.415899    0.637882    0.055545
     14          6           0       -5.024983    0.069386    1.266632
     15          1           0       -4.671342    0.599439    2.126215
     16          1           0       -6.089555    0.158223    1.205852
     17          1           0       -4.757398   -0.963306    1.349368
     18          6           0       -4.783516    2.056627   -0.058120
     19          1           0       -4.340169    2.470430   -0.939660
     20          1           0       -5.848088    2.145464   -0.118901
     21          1           0       -4.429875    2.586679    0.801462
 ---------------------------------------------------------------------
                    Distance matrix (angstroms):
                    1          2          3          4          5
     1  C    0.000000
     2  C    1.401400   0.000000
     3  C    2.427296   1.401400   0.000000
     4  C    2.802800   2.427296   1.401400   0.000000
     5  C    2.427296   2.802800   2.427296   1.401400   0.000000
     6  C    1.401400   2.427296   2.802800   2.427296   1.401400
     7  H    1.070000   2.146700   3.396345   3.872800   3.396345
     8  H    2.146700   1.070000   2.146700   3.396345   3.872800
     9  H    3.872800   3.396345   2.146700   1.070000   2.146700
    10  H    3.396345   3.872800   3.396345   2.146700   1.070000
    11  C    3.838989   2.548270   1.540000   2.548270   3.838989
    12  N    4.940100   3.598159   2.686600   3.598158   4.940100
    13  N    2.486942   3.772644   4.272800   3.772644   2.486942
    14  C    3.144663   4.394341   4.960349   4.525324   3.325241
    15  H    3.522749   4.564145   4.873462   4.271788   3.134726
    16  H    4.089951   5.398891   5.995194   5.506029   4.230370
    17  H    2.869316   4.081009   4.873462   4.735500   3.742097
    18  C    3.692458   4.801623   4.960349   4.090625   2.704049
    19  H    3.834648   4.808970   4.873462   3.994172   2.744402
    20  H    4.524715   5.735275   5.995194   5.154708   3.761739
    21  H    4.019342   4.957497   4.873462   3.808258   2.466001
                    6          7          8          9         10
     6  C    0.000000
     7  H    2.146700   0.000000
     8  H    3.396345   2.471400   0.000000
     9  H    3.396345   4.942800   4.280590   0.000000
    10  H    2.146700   4.280590   4.942800   2.471400   0.000000
    11  C    4.342800   4.693509   2.736837   2.736837   4.693509
    12  N    5.489400   5.737826   3.566018   3.566016   5.737825
    13  N    1.470000   2.693766   4.631321   4.631321   2.693766
    14  C    2.400500   3.160709   5.157984   5.353987   3.471375
    15  H    2.628174   3.784810   5.401534   4.961949   3.125563
    16  H    3.331921   3.960301   6.130864   6.296655   4.212403
    17  H    2.628174   2.637977   4.670194   5.655687   4.139444
    18  C    2.400500   4.073706   5.762795   4.696826   2.333549
    19  H    2.628174   4.286215   5.763978   4.535867   2.392132
    20  H    3.331921   4.721120   6.647744   5.748293   3.337566
    21  H    2.628174   4.574908   5.981770   4.244520   1.778806
                   11         12         13         14         15
    11  C    0.000000
    12  N    1.146600   0.000000
    13  N    5.812800   6.959400   0.000000
    14  C    6.453379   7.577227   1.470000   0.000000
    15  H    6.300249   7.392125   2.086720   1.070000   0.000000
    16  H    7.501932   8.631396   2.086720   1.070000   1.747303
    17  H    6.300249   7.392125   2.086720   1.070000   1.747303
    18  C    6.453378   7.577226   1.470000   2.400500   2.628174
    19  H    6.300247   7.392122   2.086720   3.331921   3.606919
    20  H    7.501932   8.631394   2.086720   2.628174   2.969085
    21  H    6.300248   7.392123   2.086720   2.628174   2.400500
                   16         17         18         19         20
    16  H    0.000000
    17  H    1.747303   0.000000
    18  C    2.628174   3.331921   0.000000
    19  H    3.606919   4.147803   1.070000   0.000000
    20  H    2.400500   3.606919   1.070000   1.747303   0.000000
    21  H    2.969085   3.606919   1.070000   1.747303   1.747303
                   21
    21  H    0.000000
 Stoichiometry    C9H10N2
 Framework group  C1[X(C9H10N2)]
 Deg. of freedom    57
 Full point group                 C1      NOp   1
 Largest Abelian subgroup         C1      NOp   1
 Largest concise Abelian subgroup C1      NOp   1
                         Standard orientation:                         
 ---------------------------------------------------------------------
 Center     Atomic      Atomic             Coordinates (Angstroms)
 Number     Number       Type             X           Y           Z
 ---------------------------------------------------------------------
      1          6           0        0.143468    1.296087   -0.432365
      2          6           0       -1.251884    1.211906   -0.333221
      3          6           0       -1.858830   -0.008422   -0.007129
      4          6           0       -1.070425   -1.144570    0.219823
      5          6           0        0.324927   -1.060390    0.120680
      6          6           0        0.931873    0.159938   -0.205414
      7          1           0        0.606885    2.227834   -0.681345
      8          1           0       -1.853849    2.079381   -0.506502
      9          1           0       -1.533842   -2.076318    0.468803
     10          1           0        0.926892   -1.927864    0.293964
     11          6           0       -3.392184   -0.100928    0.101816
     12          7           0       -4.533835   -0.169805    0.182931
     13          7           0        2.395529    0.248239   -0.309409
     14          6           0        2.940484    0.828170    0.926554
     15          1           0        2.678790    0.207039    1.757585
     16          1           0        4.005866    0.892443    0.850857
     17          1           0        2.533463    1.807153    1.070867
     18          6           0        2.954706   -1.096719   -0.507671
     19          1           0        2.558038   -1.518845   -1.407318
     20          1           0        4.020088   -1.032446   -0.583368
     21          1           0        2.693012   -1.717850    0.323360
 ---------------------------------------------------------------------
 Rotational constants (GHZ):      3.4179836      0.5648731      0.5128704
 Standard basis: 3-21G (6D, 7F)
 There are   119 symmetry adapted basis functions of A   symmetry.
 Integral buffers will be    262144 words long.
 Raffenetti 2 integral format.
 Two-electron integral symmetry is turned on.
   119 basis functions,   195 primitive gaussians,   119 cartesian basis functions
    39 alpha electrons       39 beta electrons
       nuclear repulsion energy       546.0621522382 Hartrees.
 NAtoms=   21 NActive=   21 NUniq=   21 SFac= 7.50D-01 NAtFMM=   80 NAOKFM=F Big=F
 One-electron integrals computed using PRISM.
 NBasis=   119 RedAO= T  NBF=   119
 NBsUse=   119 1.00D-06 NBFU=   119
 Harris functional with IExCor=  402 diagonalized for initial guess.
 ExpMin= 1.83D-01 ExpMax= 2.43D+02 ExpMxC= 2.43D+02 IAcc=1 IRadAn=         1 AccDes= 0.00D+00
 HarFok:  IExCor=  402 AccDes= 0.00D+00 IRadAn=         1 IDoV= 1
 ScaDFX=  1.000000  1.000000  1.000000  1.000000
 FoFCou: FMM=F IPFlag=           0 FMFlag=      100000 FMFlg1=           0
         NFxFlg=           0 DoJE=T BraDBF=F KetDBF=T FulRan=T
         Omega=  0.000000  0.000000  1.000000  0.000000  0.000000 ICntrl=     500 IOpCl=  0
         NMat0=    1 NMatS0=    1 NMatT0=    0 NMatD0=    1 NMtDS0=    0 NMtDT0=    0
         I1Cent=           4 NGrid=           0.
 Petite list used in FoFCou.
 Initial guess orbital symmetries:
       Occupied  (A) (A) (A) (A) (A) (A) (A) (A) (A) (A) (A) (A)
                 (A) (A) (A) (A) (A) (A) (A) (A) (A) (A) (A) (A)
                 (A) (A) (A) (A) (A) (A) (A) (A) (A) (A) (A) (A)
                 (A) (A) (A)
       Virtual   (A) (A) (A) (A) (A) (A) (A) (A) (A) (A) (A) (A)
                 (A) (A) (A) (A) (A) (A) (A) (A) (A) (A) (A) (A)
                 (A) (A) (A) (A) (A) (A) (A) (A) (A) (A) (A) (A)
                 (A) (A) (A) (A) (A) (A) (A) (A) (A) (A) (A) (A)
                 (A) (A) (A) (A) (A) (A) (A) (A) (A) (A) (A) (A)
                 (A) (A) (A) (A) (A) (A) (A) (A) (A) (A) (A) (A)
                 (A) (A) (A) (A) (A) (A) (A) (A)
 The electronic state of the initial guess is 1-A.
 Requested convergence on RMS density matrix=1.00D-08 within 128 cycles.
 Requested convergence on MAX density matrix=1.00D-06.
 Requested convergence on             energy=1.00D-06.
 No special actions if energy rises.
 Keep R1 ints in memory in canonical form, NReq=26663108.
 Integral accuracy reduced to 1.0D-05 until final iterations.
 Initial convergence to 1.0D-05 achieved.  Increase integral accuracy.
 SCF Done:  E(RB3LYP) =  -455.921196485     A.U. after   15 cycles
             Convg  =    0.5788D-08             -V/T =  2.0081
 ExpMin= 1.83D-01 ExpMax= 2.43D+02 ExpMxC= 2.43D+02 IAcc=1 IRadAn=         1 AccDes= 0.00D+00
 HarFok:  IExCor=  205 AccDes= 0.00D+00 IRadAn=         1 IDoV=-2
 ScaDFX=  1.000000  1.000000  1.000000  1.000000
 Range of M.O.s used for correlation:    12   119
 NBasis=   119 NAE=    39 NBE=    39 NFC=    11 NFV=     0
 NROrb=    108 NOA=    28 NOB=    28 NVA=    80 NVB=    80
 Would need an additional    46700000 words for in-memory AO integral storage.
 Orbital symmetries:
       Occupied  (A) (A) (A) (A) (A) (A) (A) (A) (A) (A) (A) (A)
                 (A) (A) (A) (A) (A) (A) (A) (A) (A) (A) (A) (A)
                 (A) (A) (A) (A) (A) (A) (A) (A) (A) (A) (A) (A)
                 (A) (A) (A)
       Virtual   (A) (A) (A) (A) (A) (A) (A) (A) (A) (A) (A) (A)
                 (A) (A) (A) (A) (A) (A) (A) (A) (A) (A) (A) (A)
                 (A) (A) (A) (A) (A) (A) (A) (A) (A) (A) (A) (A)
                 (A) (A) (A) (A) (A) (A) (A) (A) (A) (A) (A) (A)
                 (A) (A) (A) (A) (A) (A) (A) (A) (A) (A) (A) (A)
                 (A) (A) (A) (A) (A) (A) (A) (A) (A) (A) (A) (A)
                 (A) (A) (A) (A) (A) (A) (A) (A)
    12 initial guesses have been made.
 Convergence on wavefunction:    0.001000000000000
 Iteration     1 Dimension    12 NMult    12
 CISAX will form    12 AO SS matrices at one time.
 New state      1 was old state      2
 New state      2 was old state      1
 Iteration     2 Dimension    18 NMult    18
 Iteration     3 Dimension    24 NMult    24
 Iteration     4 Dimension    30 NMult    30
 Iteration     5 Dimension    36 NMult    36
 ***********************************************************************
 Excited states from <AA,BB:AA,BB> singles matrix:
 ***********************************************************************
 
 Ground to excited state transition electric dipole moments (Au):
       state          X           Y           Z        Dip. S.      Osc.
         1         1.0910     -0.1197      0.0580      1.2079      0.1332
         2        -0.5071     -0.2178      0.0782      0.3107      0.0355
         3         0.1950      0.2654     -0.0788      0.1146      0.0159
 Ground to excited state transition velocity dipole moments (Au):
       state          X           Y           Z        Dip. S.      Osc.
         1        -0.1483      0.0242     -0.0172      0.0229      0.0923
         2         0.0633      0.0341     -0.0137      0.0054      0.0209
         3        -0.0294     -0.0469      0.0159      0.0033      0.0106
 Ground to excited state transition magnetic dipole moments (Au):
       state          X           Y           Z
         1         0.1611      0.1453     -0.0357
         2        -0.1275      0.0243     -0.3543
         3         0.0579     -0.0623      0.0858
 <0|del|b> * <b|rxdel|0> + <0|del|b> * <b|delr+rdel|0>
 Rotatory Strengths (R) in cgs (10**-40 erg-esu-cm/Gauss)
       state          XX          YY          ZZ    R(velocity)
         1        11.3750    -35.8173    -60.0548    -28.1657
 Total R(velocity) tensor for State=          1
                 1             2             3 
      1   0.113750D+02  0.720444D+02  0.319987D+01
      2  -0.526111D+01 -0.358173D+02 -0.497967D+01
      3   0.106018D+02  0.221973D+02 -0.600548D+02
 R(velocity) tensor in inp. orien. for State=          1
                 1             2             3 
      1   0.195360D+02  0.640972D+02  0.461824D+00
      2  -0.121988D+02 -0.432940D+02  0.645354D+01
      3  -0.150656D+02 -0.201424D+02 -0.607392D+02
         2        11.9462     -6.0531    -15.7239     -3.2769
 Total R(velocity) tensor for State=          2
                 1             2             3 
      1   0.119462D+02 -0.676599D+01  0.382922D+02
      2   0.950676D+01 -0.605307D+01  0.288086D+02
      3  -0.531419D+01  0.353624D+01 -0.157239D+02
 R(velocity) tensor in inp. orien. for State=          2
                 1             2             3 
      1   0.116250D+02 -0.691341D+01 -0.426633D+02
      2   0.647688D+01 -0.454285D+01 -0.226178D+02
      3   0.489250D+01 -0.353480D+01 -0.169129D+02
         3         9.3408     -2.4110      1.8623      2.9307
 Total R(velocity) tensor for State=          3
                 1             2             3 
      1   0.934076D+01 -0.480208D+01  0.311090D+01
      2   0.526702D+01 -0.241105D+01  0.263025D+01
      3  -0.197529D+01  0.186905D+01  0.186227D+01
 R(velocity) tensor in inp. orien. for State=          3
                 1             2             3 
      1   0.915871D+01 -0.624423D+01 -0.388039D+01
      2   0.351254D+01 -0.198792D+01 -0.242574D+01
      3   0.183121D+01 -0.228873D+01  0.162119D+01
 1/2[<0|r|b>*<b|rxdel|0> + (<0|rxdel|b>*<b|r|0>)*]
 Rotatory Strengths (R) in cgs (10**-40 erg-esu-cm/Gauss)
       state          XX          YY          ZZ     R(length)     R(au)
         1      -124.2583     12.2952      1.4666    -36.8322     -0.0781
         2       -45.7231      3.7464     19.6025     -7.4581     -0.0158
         3        -7.9887     11.6902      4.7794      2.8270      0.0060
  1/2[<0|del|b>*<b|r|0> + (<0|r|b>*<b|del|0>)*] (Au)
       state          X           Y           Z        Dip. S.   Osc.(frdel)
         1        -0.1618     -0.0029     -0.0010      0.1657      0.1105
         2        -0.0321     -0.0074     -0.0011      0.0406      0.0271
         3        -0.0057     -0.0124     -0.0013      0.0194      0.0129
 Ground to excited state transition densities written to RWF  633

 Excitation energies and oscillator strengths:
 
 Excited State   1:      Singlet-A      4.5001 eV  275.52 nm  f=0.1332  <S**2>=0.000
      37 -> 40         0.11551
      39 -> 40         0.66218
      39 -> 41         0.20233
 This state for optimization and/or second-order correction.
 Copying the excited state density for this state as the 1-particle RhoCI density.
 
 Excited State   2:      Singlet-A      4.6628 eV  265.90 nm  f=0.0355  <S**2>=0.000
      38 -> 40         0.17564
      39 -> 40        -0.20132
      39 -> 41         0.65236
 
 Excited State   3:      Singlet-A      5.6473 eV  219.55 nm  f=0.0159  <S**2>=0.000
      37 -> 41        -0.45761
      38 -> 40         0.51319
      39 -> 41        -0.11807
 SavETr:  write IOETrn=   770 NScale= 10 NData=  16 NLR=1 LETran=      62.

 **********************************************************************

            Population analysis using the SCF density.

 **********************************************************************

 Orbital symmetries:
       Occupied  (A) (A) (A) (A) (A) (A) (A) (A) (A) (A) (A) (A)
                 (A) (A) (A) (A) (A) (A) (A) (A) (A) (A) (A) (A)
                 (A) (A) (A) (A) (A) (A) (A) (A) (A) (A) (A) (A)
                 (A) (A) (A)
       Virtual   (A) (A) (A) (A) (A) (A) (A) (A) (A) (A) (A) (A)
                 (A) (A) (A) (A) (A) (A) (A) (A) (A) (A) (A) (A)
                 (A) (A) (A) (A) (A) (A) (A) (A) (A) (A) (A) (A)
                 (A) (A) (A) (A) (A) (A) (A) (A) (A) (A) (A) (A)
                 (A) (A) (A) (A) (A) (A) (A) (A) (A) (A) (A) (A)
                 (A) (A) (A) (A) (A) (A) (A) (A) (A) (A) (A) (A)
                 (A) (A) (A) (A) (A) (A) (A) (A)
 The electronic state is 1-A.
 Alpha  occ. eigenvalues --  -14.27099 -14.24916 -10.18574 -10.18271 -10.16476
 Alpha  occ. eigenvalues --  -10.15614 -10.15545 -10.14759 -10.14650 -10.14609
 Alpha  occ. eigenvalues --  -10.14586  -0.95626  -0.93061  -0.87597  -0.77513
 Alpha  occ. eigenvalues --   -0.77410  -0.72912  -0.67467  -0.63809  -0.60901
 Alpha  occ. eigenvalues --   -0.56842  -0.51096  -0.50181  -0.48156  -0.47143
 Alpha  occ. eigenvalues --   -0.45525  -0.44670  -0.43051  -0.40795  -0.39884
 Alpha  occ. eigenvalues --   -0.38896  -0.38116  -0.37440  -0.34868  -0.34210
 Alpha  occ. eigenvalues --   -0.33985  -0.27799  -0.27424  -0.22179
 Alpha virt. eigenvalues --   -0.03416  -0.02015   0.05095   0.08377   0.08994
 Alpha virt. eigenvalues --    0.11323   0.13505   0.14845   0.15366   0.16355
 Alpha virt. eigenvalues --    0.17367   0.18228   0.18739   0.19561   0.20837
 Alpha virt. eigenvalues --    0.21292   0.24130   0.25332   0.26738   0.32906
 Alpha virt. eigenvalues --    0.34138   0.34835   0.35713   0.49845   0.53589
 Alpha virt. eigenvalues --    0.57322   0.63866   0.65204   0.66127   0.68426
 Alpha virt. eigenvalues --    0.69134   0.69942   0.71608   0.72580   0.74674
 Alpha virt. eigenvalues --    0.75693   0.76867   0.78368   0.80392   0.82153
 Alpha virt. eigenvalues --    0.83299   0.84917   0.86916   0.92041   0.92299
 Alpha virt. eigenvalues --    0.93995   0.94738   0.99509   0.99959   1.00176
 Alpha virt. eigenvalues --    1.01516   1.05073   1.07358   1.08644   1.13101
 Alpha virt. eigenvalues --    1.15625   1.17070   1.17812   1.20166   1.21889
 Alpha virt. eigenvalues --    1.23510   1.26607   1.30704   1.34076   1.37836
 Alpha virt. eigenvalues --    1.46216   1.47321   1.50122   1.52140   1.53355
 Alpha virt. eigenvalues --    1.54489   1.61958   1.74815   1.80762   1.86657
 Alpha virt. eigenvalues --    1.95556   2.08051   2.45192   2.91453   2.95015
          Condensed to atoms (all electrons):
              1          2          3          4          5          6
     1  C    5.165123   0.442493  -0.081121  -0.020728  -0.089313   0.448120
     2  C    0.442493   5.149148   0.440152  -0.067122  -0.019708  -0.072814
     3  C   -0.081121   0.440152   5.301974   0.448679  -0.082963  -0.025482
     4  C   -0.020728  -0.067122   0.448679   5.146089   0.420004  -0.056690
     5  C   -0.089313  -0.019708  -0.082963   0.420004   5.303393   0.369323
     6  C    0.448120  -0.072814  -0.025482  -0.056690   0.369323   5.101541
     7  H    0.384631  -0.037135   0.003982  -0.000340   0.004782  -0.041845
     8  H   -0.033496   0.392633  -0.040580   0.003446  -0.000120   0.003858
     9  H   -0.000109   0.003442  -0.039810   0.392894  -0.033977   0.003303
    10  H    0.003078  -0.000084   0.003792  -0.038112   0.393912  -0.051671
    11  C    0.003115  -0.059654   0.165034  -0.059033   0.003378  -0.000118
    12  N   -0.000001  -0.000224  -0.083410  -0.000242  -0.000001   0.000000
    13  N   -0.053681   0.002910  -0.000207   0.003856  -0.059362   0.295948
    14  C   -0.003951  -0.000022   0.000016  -0.000060   0.000641  -0.096849
    15  H   -0.000118   0.000046  -0.000014  -0.000204   0.005655  -0.006015
    16  H    0.000069   0.000000   0.000000   0.000002  -0.000173   0.005367
    17  H    0.003423  -0.000113   0.000003   0.000006  -0.000334  -0.003808
    18  C    0.003046  -0.000136  -0.000006   0.000636  -0.019758  -0.089157
    19  H    0.000297  -0.000012  -0.000006   0.000011   0.000285  -0.001658
    20  H   -0.000048   0.000000   0.000000  -0.000004   0.000507   0.004664
    21  H   -0.000258   0.000015  -0.000006  -0.000427  -0.002582  -0.008890
              7          8          9         10         11         12
     1  C    0.384631  -0.033496  -0.000109   0.003078   0.003115  -0.000001
     2  C   -0.037135   0.392633   0.003442  -0.000084  -0.059654  -0.000224
     3  C    0.003982  -0.040580  -0.039810   0.003792   0.165034  -0.083410
     4  C   -0.000340   0.003446   0.392894  -0.038112  -0.059033  -0.000242
     5  C    0.004782  -0.000120  -0.033977   0.393912   0.003378  -0.000001
     6  C   -0.041845   0.003858   0.003303  -0.051671  -0.000118   0.000000
     7  H    0.482895  -0.003828   0.000002  -0.000034  -0.000044   0.000000
     8  H   -0.003828   0.472061  -0.000048   0.000001  -0.004486  -0.000112
     9  H    0.000002  -0.000048   0.472674  -0.003281  -0.004444  -0.000110
    10  H   -0.000034   0.000001  -0.003281   0.484882  -0.000047   0.000000
    11  C   -0.000044  -0.004486  -0.004444  -0.000047   4.844901   0.797905
    12  N    0.000000  -0.000112  -0.000110   0.000000   0.797905   6.761894
    13  N   -0.000743  -0.000015  -0.000016  -0.009338   0.000000   0.000000
    14  C    0.000441   0.000001   0.000001  -0.000053   0.000000   0.000000
    15  H    0.000163   0.000000   0.000002   0.000653   0.000000   0.000000
    16  H   -0.000063   0.000000   0.000000  -0.000022   0.000000   0.000000
    17  H    0.000622   0.000001   0.000000  -0.000017   0.000000   0.000000
    18  C   -0.000001   0.000001  -0.000002   0.000830   0.000000   0.000000
    19  H   -0.000013   0.000000  -0.000002  -0.000888   0.000000   0.000000
    20  H   -0.000006   0.000000   0.000000   0.000012   0.000000   0.000000
    21  H    0.000019   0.000000   0.000015   0.012544   0.000000   0.000000
             13         14         15         16         17         18
     1  C   -0.053681  -0.003951  -0.000118   0.000069   0.003423   0.003046
     2  C    0.002910  -0.000022   0.000046   0.000000  -0.000113  -0.000136
     3  C   -0.000207   0.000016  -0.000014   0.000000   0.000003  -0.000006
     4  C    0.003856  -0.000060  -0.000204   0.000002   0.000006   0.000636
     5  C   -0.059362   0.000641   0.005655  -0.000173  -0.000334  -0.019758
     6  C    0.295948  -0.096849  -0.006015   0.005367  -0.003808  -0.089157
     7  H   -0.000743   0.000441   0.000163  -0.000063   0.000622  -0.000001
     8  H   -0.000015   0.000001   0.000000   0.000000   0.000001   0.000001
     9  H   -0.000016   0.000001   0.000002   0.000000   0.000000  -0.000002
    10  H   -0.009338  -0.000053   0.000653  -0.000022  -0.000017   0.000830
    11  C    0.000000   0.000000   0.000000   0.000000   0.000000   0.000000
    12  N    0.000000   0.000000   0.000000   0.000000   0.000000   0.000000
    13  N    7.037710   0.285872  -0.052643  -0.030590  -0.030735   0.284869
    14  C    0.285872   5.262497   0.334122   0.365613   0.370726  -0.096163
    15  H   -0.052643   0.334122   0.596238  -0.038314  -0.035485  -0.005409
    16  H   -0.030590   0.365613  -0.038314   0.510406  -0.021849  -0.002293
    17  H   -0.030735   0.370726  -0.035485  -0.021849   0.497397   0.004811
    18  C    0.284869  -0.096163  -0.005409  -0.002293   0.004811   5.265813
    19  H   -0.029818   0.004771  -0.000320   0.000055  -0.000115   0.372874
    20  H   -0.029952  -0.002449  -0.001305   0.004041   0.000062   0.370911
    21  H   -0.052608  -0.004382   0.014358  -0.001384  -0.000302   0.326485
             19         20         21
     1  C    0.000297  -0.000048  -0.000258
     2  C   -0.000012   0.000000   0.000015
     3  C   -0.000006   0.000000  -0.000006
     4  C    0.000011  -0.000004  -0.000427
     5  C    0.000285   0.000507  -0.002582
     6  C   -0.001658   0.004664  -0.008890
     7  H   -0.000013  -0.000006   0.000019
     8  H    0.000000   0.000000   0.000000
     9  H   -0.000002   0.000000   0.000015
    10  H   -0.000888   0.000012   0.012544
    11  C    0.000000   0.000000   0.000000
    12  N    0.000000   0.000000   0.000000
    13  N   -0.029818  -0.029952  -0.052608
    14  C    0.004771  -0.002449  -0.004382
    15  H   -0.000320  -0.001305   0.014358
    16  H    0.000055   0.004041  -0.001384
    17  H   -0.000115   0.000062  -0.000302
    18  C    0.372874   0.370911   0.326485
    19  H    0.493056  -0.020595  -0.040459
    20  H   -0.020595   0.500486  -0.036742
    21  H   -0.040459  -0.036742   0.611922
 Mulliken atomic charges:
              1
     1  C   -0.170572
     2  C   -0.173816
     3  C   -0.010027
     4  C   -0.172663
     5  C   -0.193592
     6  C    0.222875
     7  H    0.206514
     8  H    0.210683
     9  H    0.209466
    10  H    0.203845
    11  C    0.313492
    12  N   -0.475698
    13  N   -0.561456
    14  C   -0.420772
    15  H    0.188590
    16  H    0.209134
    17  H    0.215709
    18  C   -0.417349
    19  H    0.222538
    20  H    0.210417
    21  H    0.182682
 Sum of Mulliken atomic charges =   0.00000
 Mulliken charges with hydrogens summed into heavy atoms:
              1
     1  C    0.035941
     2  C    0.036867
     3  C   -0.010027
     4  C    0.036803
     5  C    0.010254
     6  C    0.222875
    11  C    0.313492
    12  N   -0.475698
    13  N   -0.561456
    14  C    0.192661
    18  C    0.198288
 Sum of Mulliken charges with hydrogens summed into heavy atoms =   0.00000
 Electronic spatial extent (au):  <R**2>=           2150.4882
 Charge=              0.0000 electrons
 Dipole moment (field-independent basis, Debye):
    X=              5.0526    Y=             -0.2866    Z=              0.6177  Tot=              5.0983
 Quadrupole moment (field-independent basis, Debye-Ang):
   XX=            -82.4994   YY=            -57.8073   ZZ=            -67.8046
   XY=             -3.1748   XZ=              3.4987   YZ=             -0.2937
 Traceless Quadrupole moment (field-independent basis, Debye-Ang):
   XX=            -13.1290   YY=             11.5631   ZZ=              1.5659
   XY=             -3.1748   XZ=              3.4987   YZ=             -0.2937
 Octapole moment (field-independent basis, Debye-Ang**2):
  XXX=            156.0113  YYY=              2.7326  ZZZ=              0.9959  XYY=              0.5561
  XXY=              1.6443  XXZ=              0.5683  XZZ=              3.4493  YZZ=             -0.9206
  YYZ=             -0.4155  XYZ=              6.4091
 Hexadecapole moment (field-independent basis, Debye-Ang**3):
 XXXX=          -2909.6908 YYYY=           -373.8261 ZZZZ=           -155.6489 XXXY=            -43.0086
 XXXZ=             46.5736 YYYX=              1.7677 YYYZ=             -9.6498 ZZZX=             -1.0815
 ZZZY=              3.7792 XXYY=           -435.5316 XXZZ=           -418.9362 YYZZ=            -93.7754
 XXYZ=             11.2457 YYXZ=              0.5498 ZZXY=             -1.9392
 N-N= 5.460621522382D+02 E-N=-2.148657776485D+03  KE= 4.522542236120D+02
 1|1|UNPC-DESKTOP-K2VF0AK|SP|RTD-B3LYP-FC|3-21G|C9H10N2|MELIH|16-Jan-20
 25|0||# td b3lyp/3-21g maxdisk=2GB geom=connectivity||Title Card Requi
 red||0,1|C,0,-2.33356183,-0.70394063,-0.16414458|C,0,-0.93927091,-0.82
 029243,-0.08453879|C,0,-0.1647743,0.28313149,0.29825698|C,0,-0.7845687
 6,1.50290662,0.60144901|C,0,-2.17885969,1.61925834,0.52184354|C,0,-2.9
 5335625,0.51583462,0.13904706|H,0,-2.92490703,-1.54642875,-0.45641947|
 H,0,-0.4660442,-1.75161822,-0.31603128|H,0,-0.1932235,2.34539492,0.893
 72327|H,0,-2.65208669,2.55058309,0.75333955|C,0,1.36741381,0.15527343,
 0.38573215|N,0,2.5081976,0.06007876,0.45086183|N,0,-4.41589924,0.63788
 168,0.05554549|C,0,-5.02498274,0.06938649,1.26663199|H,0,-4.67134196,0
 .59943902,2.12621476|H,0,-6.08955485,0.15822345,1.20585194|H,0,-4.7573
 9788,-0.96330565,1.34936845|C,0,-4.7835158,2.05662693,-0.05812048|H,0,
 -4.34016933,2.47042957,-0.93965964|H,0,-5.84808791,2.14546391,-0.11890
 053|H,0,-4.42987502,2.58667947,0.8014623||Version=IA32W-G09RevA.02|Sta
 te=1-A|HF=-455.9211965|RMSD=5.788e-009|PG=C01 [X(C9H10N2)]||@


 THE DIFFICULTY IN SCIENCE IS OFTEN NOT SO MUCH HOW
 TO MAKE A DISCOVERY BUT RATHER TO KNOW ONE HAS MADE IT.

                                                   -- J. D. BERNAL
 Job cpu time:  0 days  0 hours  2 minutes 29.0 seconds.
 File lengths (MBytes):  RWF=     33 Int=      0 D2E=      0 Chk=      3 Scr=      1
 Normal termination of Gaussian 09 at Thu Jan 16 02:15:53 2025.
