 Entering Link 1 = C:\G09W\l1.exe PID=     22420.
  
 Copyright (c) 1988,1990,1992,1993,1995,1998,2003,2009, Gaussian, Inc.
                  All Rights Reserved.
  
 This is part of the Gaussian(R) 09 program.  It is based on
 the Gaussian(R) 03 system (copyright 2003, Gaussian, Inc.),
 the Gaussian(R) 98 system (copyright 1998, Gaussian, Inc.),
 the Gaussian(R) 94 system (copyright 1995, Gaussian, Inc.),
 the Gaussian 92(TM) system (copyright 1992, Gaussian, Inc.),
 the Gaussian 90(TM) system (copyright 1990, Gaussian, Inc.),
 the Gaussian 88(TM) system (copyright 1988, Gaussian, Inc.),
 the Gaussian 86(TM) system (copyright 1986, Carnegie Mellon
 University), and the Gaussian 82(TM) system (copyright 1983,
 Carnegie Mellon University). Gaussian is a federally registered
 trademark of Gaussian, Inc.
  
 This software contains proprietary and confidential information,
 including trade secrets, belonging to Gaussian, Inc.
  
 This software is provided under written license and may be
 used, copied, transmitted, or stored only in accord with that
 written license.
  
 The following legend is applicable only to US Government
 contracts under FAR:
  
                    RESTRICTED RIGHTS LEGEND
  
 Use, reproduction and disclosure by the US Government is
 subject to restrictions as set forth in subparagraphs (a)
 and (c) of the Commercial Computer Software - Restricted
 Rights clause in FAR 52.227-19.
  
 Gaussian, Inc.
 340 Quinnipiac St., Bldg. 40, Wallingford CT 06492
  
  
 ---------------------------------------------------------------
 Warning -- This program may not be used in any manner that
 competes with the business of Gaussian, Inc. or will provide
 assistance to any competitor of Gaussian, Inc.  The licensee
 of this program is prohibited from giving any competitor of
 Gaussian, Inc. access to this program.  By using this program,
 the user acknowledges that Gaussian, Inc. is engaged in the
 business of creating and licensing software in the field of
 computational chemistry and represents and warrants to the
 licensee that it is not a competitor of Gaussian, Inc. and that
 it will not use this program in any manner prohibited above.
 ---------------------------------------------------------------
  

 Cite this work as:
 Gaussian 09, Revision A.02,
 M. J. Frisch, G. W. Trucks, H. B. Schlegel, G. E. Scuseria, 
 M. A. Robb, J. R. Cheeseman, G. Scalmani, V. Barone, B. Mennucci, 
 G. A. Petersson, H. Nakatsuji, M. Caricato, X. Li, H. P. Hratchian, 
 A. F. Izmaylov, J. Bloino, G. Zheng, J. L. Sonnenberg, M. Hada, 
 M. Ehara, K. Toyota, R. Fukuda, J. Hasegawa, M. Ishida, T. Nakajima, 
 Y. Honda, O. Kitao, H. Nakai, T. Vreven, J. A. Montgomery, Jr., 
 J. E. Peralta, F. Ogliaro, M. Bearpark, J. J. Heyd, E. Brothers, 
 K. N. Kudin, V. N. Staroverov, R. Kobayashi, J. Normand, 
 K. Raghavachari, A. Rendell, J. C. Burant, S. S. Iyengar, J. Tomasi, 
 M. Cossi, N. Rega, J. M. Millam, M. Klene, J. E. Knox, J. B. Cross, 
 V. Bakken, C. Adamo, J. Jaramillo, R. Gomperts, R. E. Stratmann, 
 O. Yazyev, A. J. Austin, R. Cammi, C. Pomelli, J. W. Ochterski, 
 R. L. Martin, K. Morokuma, V. G. Zakrzewski, G. A. Voth, 
 P. Salvador, J. J. Dannenberg, S. Dapprich, A. D. Daniels, 
 O. Farkas, J. B. Foresman, J. V. Ortiz, J. Cioslowski, 
 and D. J. Fox, Gaussian, Inc., Wallingford CT, 2009.
 
 ******************************************
 Gaussian 09:  IA32W-G09RevA.02 11-Jun-2009
                16-Jan-2025 
 ******************************************
 %chk=C:\G09W\Final\110tdenergy.chk
 ----------------------------------------------
 # td b3lyp/3-21g maxdisk=2GB geom=connectivity
 ----------------------------------------------
 1/38=1,57=2/1;
 2/12=2,17=6,18=5,40=1/2;
 3/5=5,11=2,16=1,25=1,30=1,74=-5/1,2,8,3;
 4//1;
 5/5=2,38=5/2;
 8/6=1,10=1/1;
 9/42=1/14;
 6/7=2,8=2,9=2,10=2/1;
 99/5=1,9=1/99;
 -------------------
 Title Card Required
 -------------------
 Symbolic Z-matrix:
 Charge =  0 Multiplicity = 1
 C                    -2.33356  -0.70394  -0.16414 
 C                    -0.93927  -0.82029  -0.08454 
 C                    -0.16477   0.28313   0.29826 
 C                    -0.78457   1.50291   0.60145 
 C                    -2.17886   1.61926   0.52184 
 C                    -2.95336   0.51583   0.13905 
 H                    -2.92491  -1.54643  -0.45642 
 H                    -0.46604  -1.75162  -0.31603 
 H                    -0.19322   2.34539   0.89372 
 H                    -2.65209   2.55058   0.75334 
 C                     1.36741   0.15527   0.38573 
 N                     2.5082    0.06008   0.45086 
 N                    -4.4159    0.63788   0.05555 
 C                    -5.03499  -0.1366    1.14081 
 H                    -4.69895   0.23993   2.08432 
 H                    -6.09956  -0.04777   1.08003 
 H                    -4.75708  -1.16571   1.04804 
 C                    -4.79769   2.0517    0.183 
 H                    -4.34706   2.61544  -0.60696 
 H                    -5.86227   2.14054   0.12222 
 H                    -4.46165   2.42823   1.1265 
 
                          Input orientation:                          
 ---------------------------------------------------------------------
 Center     Atomic      Atomic             Coordinates (Angstroms)
 Number     Number       Type             X           Y           Z
 ---------------------------------------------------------------------
      1          6           0       -2.333562   -0.703941   -0.164145
      2          6           0       -0.939271   -0.820292   -0.084539
      3          6           0       -0.164774    0.283131    0.298257
      4          6           0       -0.784569    1.502907    0.601449
      5          6           0       -2.178860    1.619258    0.521844
      6          6           0       -2.953356    0.515835    0.139047
      7          1           0       -2.924907   -1.546429   -0.456419
      8          1           0       -0.466044   -1.751618   -0.316031
      9          1           0       -0.193224    2.345395    0.893723
     10          1           0       -2.652087    2.550583    0.753340
     11          6           0        1.367414    0.155273    0.385732
     12          7           0        2.508198    0.060079    0.450862
     13          7           0       -4.415899    0.637882    0.055545
     14          6           0       -5.034989   -0.136603    1.140811
     15          1           0       -4.698951    0.239928    2.084317
     16          1           0       -6.099561   -0.047766    1.080031
     17          1           0       -4.757084   -1.165711    1.048041
     18          6           0       -4.797693    2.051703    0.182996
     19          1           0       -4.347063    2.615443   -0.606959
     20          1           0       -5.862265    2.140540    0.122216
     21          1           0       -4.461655    2.428233    1.126502
 ---------------------------------------------------------------------
                    Distance matrix (angstroms):
                    1          2          3          4          5
     1  C    0.000000
     2  C    1.401400   0.000000
     3  C    2.427296   1.401400   0.000000
     4  C    2.802800   2.427296   1.401400   0.000000
     5  C    2.427296   2.802800   2.427296   1.401400   0.000000
     6  C    1.401400   2.427296   2.802800   2.427296   1.401400
     7  H    1.070000   2.146700   3.396345   3.872800   3.396345
     8  H    2.146700   1.070000   2.146700   3.396345   3.872800
     9  H    3.872800   3.396345   2.146700   1.070000   2.146700
    10  H    3.396345   3.872800   3.396345   2.146700   1.070000
    11  C    3.838989   2.548270   1.540000   2.548270   3.838989
    12  N    4.940100   3.598159   2.686600   3.598158   4.940100
    13  N    2.486942   3.772644   4.272800   3.772644   2.486942
    14  C    3.053275   4.329413   4.960349   4.587480   3.409346
    15  H    3.397283   4.468019   4.873462   4.372230   3.270281
    16  H    4.020110   5.346177   5.995194   5.557227   4.296794
    17  H    2.748834   3.997218   4.873462   4.806438   3.831472
    18  C    3.712953   4.817401   4.960349   4.072032   2.675839
    19  H    3.907503   4.867263   4.873462   3.922927   2.639637
    20  H    4.541455   5.748491   5.995194   5.139965   3.741512
    21  H    4.000633   4.942340   4.873462   3.827907   2.496238
                    6          7          8          9         10
     6  C    0.000000
     7  H    2.146700   0.000000
     8  H    3.396345   2.471400   0.000000
     9  H    3.396345   4.942800   4.280590   0.000000
    10  H    2.146700   4.280590   4.942800   2.471400   0.000000
    11  C    4.342800   4.693509   2.736837   2.736837   4.693509
    12  N    5.489400   5.737826   3.566018   3.566016   5.737825
    13  N    1.470000   2.693766   4.631321   4.631321   2.693766
    14  C    2.400500   2.998533   5.060229   5.446472   3.612385
    15  H    2.628174   3.576820   5.257892   5.113911   3.361589
    16  H    3.331921   3.832114   6.048852   6.375480   4.329344
    17  H    2.628174   2.401088   4.540596   5.760252   4.281204
    18  C    2.400500   4.106425   5.785971   4.668247   2.275478
    19  H    2.628174   4.400724   5.849630   4.424857   2.174296
    20  H    3.331921   4.749382   6.667845   5.724965   3.297226
    21  H    2.628174   4.545896   5.959611   4.275576   1.851690
                   11         12         13         14         15
    11  C    0.000000
    12  N    1.146600   0.000000
    13  N    5.812800   6.959400   0.000000
    14  C    6.453379   7.577227   1.470000   0.000000
    15  H    6.300249   7.392125   2.086720   1.070000   0.000000
    16  H    7.501932   8.631396   2.086720   1.070000   1.747303
    17  H    6.300248   7.392125   2.086720   1.070000   1.747303
    18  C    6.453378   7.577226   1.470000   2.400500   2.628174
    19  H    6.300247   7.392122   2.086720   3.331921   3.606919
    20  H    7.501932   8.631394   2.086720   2.628174   2.969085
    21  H    6.300248   7.392123   2.086720   2.628174   2.400500
                   16         17         18         19         20
    16  H    0.000000
    17  H    1.747303   0.000000
    18  C    2.628174   3.331921   0.000000
    19  H    3.606919   4.147803   1.070000   0.000000
    20  H    2.400500   3.606919   1.070000   1.747303   0.000000
    21  H    2.969085   3.606919   1.070000   1.747303   1.747303
                   21
    21  H    0.000000
 Stoichiometry    C9H10N2
 Framework group  C1[X(C9H10N2)]
 Deg. of freedom    57
 Full point group                 C1      NOp   1
 Largest Abelian subgroup         C1      NOp   1
 Largest concise Abelian subgroup C1      NOp   1
                         Standard orientation:                         
 ---------------------------------------------------------------------
 Center     Atomic      Atomic             Coordinates (Angstroms)
 Number     Number       Type             X           Y           Z
 ---------------------------------------------------------------------
      1          6           0        0.158334    1.281356   -0.410739
      2          6           0       -1.237270    1.213513   -0.302988
      3          6           0       -1.858825   -0.007634   -0.009065
      4          6           0       -1.084777   -1.160938    0.177109
      5          6           0        0.310827   -1.093095    0.069359
      6          6           0        0.932382    0.128052   -0.224565
      7          1           0        0.632905    2.213729   -0.635158
      8          1           0       -1.828273    2.094087   -0.445135
      9          1           0       -1.559348   -2.093310    0.401527
     10          1           0        0.901830   -1.973668    0.211510
     11          6           0       -3.392456   -0.082187    0.109338
     12          7           0       -4.534313   -0.137696    0.197495
     13          7           0        2.396302    0.199216   -0.337589
     14          6           0        2.939979    0.949451    0.803666
     15          1           0        2.676250    0.453806    1.714535
     16          1           0        4.005553    1.001251    0.721396
     17          1           0        2.533871    1.939387    0.805774
     18          6           0        2.954225   -1.160789   -0.340486
     19          1           0        2.558488   -1.706879   -1.171195
     20          1           0        4.019800   -1.108990   -0.422755
     21          1           0        2.690497   -1.656434    0.570383
 ---------------------------------------------------------------------
 Rotational constants (GHZ):      3.4155847      0.5688885      0.5096579
 Standard basis: 3-21G (6D, 7F)
 There are   119 symmetry adapted basis functions of A   symmetry.
 Integral buffers will be    262144 words long.
 Raffenetti 2 integral format.
 Two-electron integral symmetry is turned on.
   119 basis functions,   195 primitive gaussians,   119 cartesian basis functions
    39 alpha electrons       39 beta electrons
       nuclear repulsion energy       546.2914752556 Hartrees.
 NAtoms=   21 NActive=   21 NUniq=   21 SFac= 7.50D-01 NAtFMM=   80 NAOKFM=F Big=F
 One-electron integrals computed using PRISM.
 NBasis=   119 RedAO= T  NBF=   119
 NBsUse=   119 1.00D-06 NBFU=   119
 Harris functional with IExCor=  402 diagonalized for initial guess.
 ExpMin= 1.83D-01 ExpMax= 2.43D+02 ExpMxC= 2.43D+02 IAcc=1 IRadAn=         1 AccDes= 0.00D+00
 HarFok:  IExCor=  402 AccDes= 0.00D+00 IRadAn=         1 IDoV= 1
 ScaDFX=  1.000000  1.000000  1.000000  1.000000
 FoFCou: FMM=F IPFlag=           0 FMFlag=      100000 FMFlg1=           0
         NFxFlg=           0 DoJE=T BraDBF=F KetDBF=T FulRan=T
         Omega=  0.000000  0.000000  1.000000  0.000000  0.000000 ICntrl=     500 IOpCl=  0
         NMat0=    1 NMatS0=    1 NMatT0=    0 NMatD0=    1 NMtDS0=    0 NMtDT0=    0
         I1Cent=           4 NGrid=           0.
 Petite list used in FoFCou.
 Initial guess orbital symmetries:
       Occupied  (A) (A) (A) (A) (A) (A) (A) (A) (A) (A) (A) (A)
                 (A) (A) (A) (A) (A) (A) (A) (A) (A) (A) (A) (A)
                 (A) (A) (A) (A) (A) (A) (A) (A) (A) (A) (A) (A)
                 (A) (A) (A)
       Virtual   (A) (A) (A) (A) (A) (A) (A) (A) (A) (A) (A) (A)
                 (A) (A) (A) (A) (A) (A) (A) (A) (A) (A) (A) (A)
                 (A) (A) (A) (A) (A) (A) (A) (A) (A) (A) (A) (A)
                 (A) (A) (A) (A) (A) (A) (A) (A) (A) (A) (A) (A)
                 (A) (A) (A) (A) (A) (A) (A) (A) (A) (A) (A) (A)
                 (A) (A) (A) (A) (A) (A) (A) (A) (A) (A) (A) (A)
                 (A) (A) (A) (A) (A) (A) (A) (A)
 The electronic state of the initial guess is 1-A.
 Requested convergence on RMS density matrix=1.00D-08 within 128 cycles.
 Requested convergence on MAX density matrix=1.00D-06.
 Requested convergence on             energy=1.00D-06.
 No special actions if energy rises.
 Keep R1 ints in memory in canonical form, NReq=26663108.
 Integral accuracy reduced to 1.0D-05 until final iterations.
 Initial convergence to 1.0D-05 achieved.  Increase integral accuracy.
 SCF Done:  E(RB3LYP) =  -455.922056808     A.U. after   15 cycles
             Convg  =    0.6667D-08             -V/T =  2.0081
 ExpMin= 1.83D-01 ExpMax= 2.43D+02 ExpMxC= 2.43D+02 IAcc=1 IRadAn=         1 AccDes= 0.00D+00
 HarFok:  IExCor=  205 AccDes= 0.00D+00 IRadAn=         1 IDoV=-2
 ScaDFX=  1.000000  1.000000  1.000000  1.000000
 Range of M.O.s used for correlation:    12   119
 NBasis=   119 NAE=    39 NBE=    39 NFC=    11 NFV=     0
 NROrb=    108 NOA=    28 NOB=    28 NVA=    80 NVB=    80
 Would need an additional    46700000 words for in-memory AO integral storage.
 Orbital symmetries:
       Occupied  (A) (A) (A) (A) (A) (A) (A) (A) (A) (A) (A) (A)
                 (A) (A) (A) (A) (A) (A) (A) (A) (A) (A) (A) (A)
                 (A) (A) (A) (A) (A) (A) (A) (A) (A) (A) (A) (A)
                 (A) (A) (A)
       Virtual   (A) (A) (A) (A) (A) (A) (A) (A) (A) (A) (A) (A)
                 (A) (A) (A) (A) (A) (A) (A) (A) (A) (A) (A) (A)
                 (A) (A) (A) (A) (A) (A) (A) (A) (A) (A) (A) (A)
                 (A) (A) (A) (A) (A) (A) (A) (A) (A) (A) (A) (A)
                 (A) (A) (A) (A) (A) (A) (A) (A) (A) (A) (A) (A)
                 (A) (A) (A) (A) (A) (A) (A) (A) (A) (A) (A) (A)
                 (A) (A) (A) (A) (A) (A) (A) (A)
    12 initial guesses have been made.
 Convergence on wavefunction:    0.001000000000000
 Iteration     1 Dimension    12 NMult    12
 CISAX will form    12 AO SS matrices at one time.
 New state      1 was old state      2
 New state      2 was old state      1
 Iteration     2 Dimension    18 NMult    18
 Iteration     3 Dimension    24 NMult    24
 Iteration     4 Dimension    30 NMult    30
 Iteration     5 Dimension    36 NMult    36
 Iteration     6 Dimension    40 NMult    40
 ***********************************************************************
 Excited states from <AA,BB:AA,BB> singles matrix:
 ***********************************************************************
 
 Ground to excited state transition electric dipole moments (Au):
       state          X           Y           Z        Dip. S.      Osc.
         1         0.8834     -0.2355      0.0938      0.8447      0.0952
         2        -1.0767     -0.1557      0.0394      1.1850      0.1380
         3         0.2995      0.3243     -0.0862      0.2023      0.0285
 Ground to excited state transition velocity dipole moments (Au):
       state          X           Y           Z        Dip. S.      Osc.
         1        -0.1261      0.0397     -0.0245      0.0181      0.0713
         2         0.1473      0.0212     -0.0036      0.0222      0.0846
         3        -0.0474     -0.0572      0.0185      0.0059      0.0185
 Ground to excited state transition magnetic dipole moments (Au):
       state          X           Y           Z
         1         0.0707      0.1780     -0.2644
         2        -0.1470     -0.0924     -0.3051
         3         0.0487     -0.0518      0.1375
 <0|del|b> * <b|rxdel|0> + <0|del|b> * <b|delr+rdel|0>
 Rotatory Strengths (R) in cgs (10**-40 erg-esu-cm/Gauss)
       state          XX          YY          ZZ    R(velocity)
         1        34.5849      6.8441    -21.9787      6.4834
 Total R(velocity) tensor for State=          1
                 1             2             3 
      1   0.345849D+02  0.755050D+02 -0.555036D+02
      2  -0.735444D+00  0.684412D+01  0.148443D+02
      3   0.962576D+01  0.169762D+02 -0.219787D+02
 R(velocity) tensor in inp. orien. for State=          1
                 1             2             3 
      1   0.440355D+02  0.657327D+02  0.583583D+02
      2  -0.455263D+01  0.112547D+01 -0.195639D+02
      3  -0.130057D+02 -0.144525D+02 -0.257107D+02
         2        -2.8834    -36.8825    -51.3663    -30.3774
 Total R(velocity) tensor for State=          2
                 1             2             3 
      1  -0.288336D+01  0.343818D+02  0.837059D+02
      2   0.550507D+01 -0.368825D+02  0.795653D+01
      3  -0.378369D+01  0.174815D+02 -0.513663D+02
 R(velocity) tensor in inp. orien. for State=          2
                 1             2             3 
      1   0.484546D+00  0.366219D+02 -0.818023D+02
      2   0.567574D+00 -0.400383D+02  0.357327D+01
      3   0.924075D+00 -0.172942D+02 -0.515785D+02
         3        12.5936     -2.3661      0.4446      3.5574
 Total R(velocity) tensor for State=          3
                 1             2             3 
      1   0.125936D+02 -0.801626D+01  0.750271D+01
      2   0.524839D+01 -0.236610D+01  0.615013D+01
      3  -0.278453D+01  0.245056D+01  0.444572D+00
 R(velocity) tensor in inp. orien. for State=          3
                 1             2             3 
      1   0.119315D+02 -0.910311D+01 -0.920885D+01
      2   0.313521D+01 -0.107241D+01 -0.533939D+01
      3   0.259010D+01 -0.279513D+01 -0.186984D+00
 1/2[<0|r|b>*<b|rxdel|0> + (<0|rxdel|b>*<b|r|0>)*]
 Rotatory Strengths (R) in cgs (10**-40 erg-esu-cm/Gauss)
       state          XX          YY          ZZ     R(length)     R(au)
         1       -44.1392     29.6466     17.5369      1.0148      0.0022
         2      -111.9452    -10.1734      8.5091    -37.8699     -0.0803
         3       -10.3106     11.8820      8.3827      3.3180      0.0070
  1/2[<0|del|b>*<b|r|0> + (<0|r|b>*<b|del|0>)*] (Au)
       state          X           Y           Z        Dip. S.   Osc.(frdel)
         1        -0.1114     -0.0093     -0.0023      0.1230      0.0820
         2        -0.1586     -0.0033     -0.0001      0.1621      0.1081
         3        -0.0142     -0.0186     -0.0016      0.0344      0.0229
 Ground to excited state transition densities written to RWF  633

 Excitation energies and oscillator strengths:
 
 Excited State   1:      Singlet-A      4.6006 eV  269.50 nm  f=0.0952  <S**2>=0.000
      38 -> 40         0.11507
      39 -> 40         0.53383
      39 -> 41         0.43420
 This state for optimization and/or second-order correction.
 Copying the excited state density for this state as the 1-particle RhoCI density.
 
 Excited State   2:      Singlet-A      4.7538 eV  260.81 nm  f=0.1380  <S**2>=0.000
      38 -> 40         0.16857
      39 -> 40        -0.44045
      39 -> 41         0.51781
 
 Excited State   3:      Singlet-A      5.7587 eV  215.30 nm  f=0.0285  <S**2>=0.000
      37 -> 41        -0.45303
      38 -> 40         0.52008
      39 -> 41        -0.14343
 SavETr:  write IOETrn=   770 NScale= 10 NData=  16 NLR=1 LETran=      62.

 **********************************************************************

            Population analysis using the SCF density.

 **********************************************************************

 Orbital symmetries:
       Occupied  (A) (A) (A) (A) (A) (A) (A) (A) (A) (A) (A) (A)
                 (A) (A) (A) (A) (A) (A) (A) (A) (A) (A) (A) (A)
                 (A) (A) (A) (A) (A) (A) (A) (A) (A) (A) (A) (A)
                 (A) (A) (A)
       Virtual   (A) (A) (A) (A) (A) (A) (A) (A) (A) (A) (A) (A)
                 (A) (A) (A) (A) (A) (A) (A) (A) (A) (A) (A) (A)
                 (A) (A) (A) (A) (A) (A) (A) (A) (A) (A) (A) (A)
                 (A) (A) (A) (A) (A) (A) (A) (A) (A) (A) (A) (A)
                 (A) (A) (A) (A) (A) (A) (A) (A) (A) (A) (A) (A)
                 (A) (A) (A) (A) (A) (A) (A) (A) (A) (A) (A) (A)
                 (A) (A) (A) (A) (A) (A) (A) (A)
 The electronic state is 1-A.
 Alpha  occ. eigenvalues --  -14.27503 -14.24792 -10.18409 -10.18351 -10.16366
 Alpha  occ. eigenvalues --  -10.15541 -10.15497 -10.14941 -10.14788 -10.14631
 Alpha  occ. eigenvalues --  -10.14486  -0.95846  -0.92950  -0.87545  -0.77504
 Alpha  occ. eigenvalues --   -0.77419  -0.73133  -0.67552  -0.63705  -0.60943
 Alpha  occ. eigenvalues --   -0.56852  -0.51187  -0.50188  -0.48140  -0.47504
 Alpha  occ. eigenvalues --   -0.45480  -0.44623  -0.42948  -0.40729  -0.39960
 Alpha  occ. eigenvalues --   -0.39293  -0.38272  -0.37270  -0.34875  -0.34113
 Alpha  occ. eigenvalues --   -0.33878  -0.28202  -0.27370  -0.22138
 Alpha virt. eigenvalues --   -0.03215  -0.01946   0.05199   0.08536   0.09036
 Alpha virt. eigenvalues --    0.11280   0.13624   0.14310   0.15397   0.16244
 Alpha virt. eigenvalues --    0.17273   0.18148   0.18993   0.19629   0.20616
 Alpha virt. eigenvalues --    0.21654   0.23960   0.24615   0.26131   0.32960
 Alpha virt. eigenvalues --    0.34188   0.34687   0.35843   0.49950   0.53709
 Alpha virt. eigenvalues --    0.57382   0.64027   0.65124   0.66277   0.68464
 Alpha virt. eigenvalues --    0.69245   0.69906   0.71557   0.72958   0.74578
 Alpha virt. eigenvalues --    0.75828   0.77036   0.78845   0.80566   0.82220
 Alpha virt. eigenvalues --    0.83834   0.84849   0.86922   0.92132   0.92375
 Alpha virt. eigenvalues --    0.93883   0.94544   0.99436   0.99661   1.00053
 Alpha virt. eigenvalues --    1.01994   1.04629   1.07849   1.09152   1.13134
 Alpha virt. eigenvalues --    1.15965   1.17094   1.17644   1.20261   1.21102
 Alpha virt. eigenvalues --    1.24908   1.26708   1.31931   1.33847   1.37988
 Alpha virt. eigenvalues --    1.45785   1.47527   1.50247   1.51746   1.53369
 Alpha virt. eigenvalues --    1.54818   1.64391   1.75039   1.79132   1.86102
 Alpha virt. eigenvalues --    1.95605   2.08242   2.45227   2.93377   2.95396
          Condensed to atoms (all electrons):
              1          2          3          4          5          6
     1  C    5.159019   0.450962  -0.081723  -0.022104  -0.080975   0.440980
     2  C    0.450962   5.139323   0.440307  -0.066361  -0.021889  -0.071468
     3  C   -0.081723   0.440307   5.303385   0.448889  -0.082548  -0.025697
     4  C   -0.022104  -0.066361   0.448889   5.143227   0.424171  -0.057797
     5  C   -0.080975  -0.021889  -0.082548   0.424171   5.279929   0.385011
     6  C    0.440980  -0.071468  -0.025697  -0.057797   0.385011   5.081381
     7  H    0.386788  -0.036864   0.003968  -0.000303   0.004489  -0.043610
     8  H   -0.033636   0.392592  -0.040382   0.003442  -0.000103   0.003825
     9  H   -0.000101   0.003444  -0.039774   0.393152  -0.034283   0.003402
    10  H    0.003167  -0.000107   0.003851  -0.038374   0.395407  -0.050931
    11  C    0.003165  -0.059594   0.165313  -0.058954   0.003369  -0.000117
    12  N   -0.000001  -0.000217  -0.083544  -0.000242  -0.000001   0.000000
    13  N   -0.052991   0.002851  -0.000215   0.003844  -0.055992   0.292819
    14  C   -0.005520   0.000062   0.000013  -0.000096   0.001017  -0.094570
    15  H    0.000348   0.000040  -0.000015  -0.000138   0.004284  -0.005229
    16  H    0.000094   0.000000   0.000000   0.000002  -0.000154   0.005287
    17  H    0.003638  -0.000114   0.000004   0.000004  -0.000234  -0.004897
    18  C    0.003226  -0.000132  -0.000005   0.000520  -0.020896  -0.088471
    19  H    0.000183  -0.000009  -0.000009   0.000091  -0.000238  -0.002296
    20  H   -0.000054   0.000001   0.000000  -0.000005   0.000646   0.004497
    21  H   -0.000164   0.000011  -0.000009  -0.000380  -0.001174  -0.007475
              7          8          9         10         11         12
     1  C    0.386788  -0.033636  -0.000101   0.003167   0.003165  -0.000001
     2  C   -0.036864   0.392592   0.003444  -0.000107  -0.059594  -0.000217
     3  C    0.003968  -0.040382  -0.039774   0.003851   0.165313  -0.083544
     4  C   -0.000303   0.003442   0.393152  -0.038374  -0.058954  -0.000242
     5  C    0.004489  -0.000103  -0.034283   0.395407   0.003369  -0.000001
     6  C   -0.043610   0.003825   0.003402  -0.050931  -0.000117   0.000000
     7  H    0.484322  -0.003793   0.000002  -0.000037  -0.000045   0.000000
     8  H   -0.003793   0.472452  -0.000048   0.000001  -0.004482  -0.000112
     9  H    0.000002  -0.000048   0.473008  -0.003403  -0.004466  -0.000110
    10  H   -0.000037   0.000001  -0.003403   0.487463  -0.000047   0.000000
    11  C   -0.000045  -0.004482  -0.004466  -0.000047   4.844878   0.798302
    12  N    0.000000  -0.000112  -0.000110   0.000000   0.798302   6.762625
    13  N   -0.001819  -0.000015  -0.000015  -0.009280   0.000000   0.000000
    14  C    0.000519   0.000001   0.000001   0.000053   0.000000   0.000000
    15  H    0.000225   0.000000   0.000001   0.000332   0.000000   0.000000
    16  H   -0.000081   0.000000   0.000000  -0.000015   0.000000   0.000000
    17  H    0.001601   0.000001   0.000000  -0.000015   0.000000   0.000000
    18  C    0.000007   0.000001  -0.000002   0.001337   0.000000   0.000000
    19  H   -0.000008   0.000000  -0.000001  -0.001001   0.000000   0.000000
    20  H   -0.000005   0.000000   0.000000   0.000095   0.000000   0.000000
    21  H    0.000018   0.000000   0.000011   0.008849   0.000000   0.000000
             13         14         15         16         17         18
     1  C   -0.052991  -0.005520   0.000348   0.000094   0.003638   0.003226
     2  C    0.002851   0.000062   0.000040   0.000000  -0.000114  -0.000132
     3  C   -0.000215   0.000013  -0.000015   0.000000   0.000004  -0.000005
     4  C    0.003844  -0.000096  -0.000138   0.000002   0.000004   0.000520
     5  C   -0.055992   0.001017   0.004284  -0.000154  -0.000234  -0.020896
     6  C    0.292819  -0.094570  -0.005229   0.005287  -0.004897  -0.088471
     7  H   -0.001819   0.000519   0.000225  -0.000081   0.001601   0.000007
     8  H   -0.000015   0.000001   0.000000   0.000000   0.000001   0.000001
     9  H   -0.000015   0.000001   0.000001   0.000000   0.000000  -0.000002
    10  H   -0.009280   0.000053   0.000332  -0.000015  -0.000015   0.001337
    11  C    0.000000   0.000000   0.000000   0.000000   0.000000   0.000000
    12  N    0.000000   0.000000   0.000000   0.000000   0.000000   0.000000
    13  N    7.041182   0.283519  -0.051859  -0.030834  -0.030825   0.283380
    14  C    0.283519   5.262721   0.335800   0.365652   0.370412  -0.094559
    15  H   -0.051859   0.335800   0.590040  -0.037977  -0.035149  -0.005439
    16  H   -0.030834   0.365652  -0.037977   0.509383  -0.021910  -0.002569
    17  H   -0.030825   0.370412  -0.035149  -0.021910   0.497183   0.004795
    18  C    0.283380  -0.094559  -0.005439  -0.002569   0.004795   5.266912
    19  H   -0.029496   0.004772  -0.000326   0.000058  -0.000116   0.372123
    20  H   -0.030060  -0.002789  -0.001245   0.004186   0.000062   0.371241
    21  H   -0.052124  -0.004382   0.014137  -0.001369  -0.000292   0.329016
             19         20         21
     1  C    0.000183  -0.000054  -0.000164
     2  C   -0.000009   0.000001   0.000011
     3  C   -0.000009   0.000000  -0.000009
     4  C    0.000091  -0.000005  -0.000380
     5  C   -0.000238   0.000646  -0.001174
     6  C   -0.002296   0.004497  -0.007475
     7  H   -0.000008  -0.000005   0.000018
     8  H    0.000000   0.000000   0.000000
     9  H   -0.000001   0.000000   0.000011
    10  H   -0.001001   0.000095   0.008849
    11  C    0.000000   0.000000   0.000000
    12  N    0.000000   0.000000   0.000000
    13  N   -0.029496  -0.030060  -0.052124
    14  C    0.004772  -0.002789  -0.004382
    15  H   -0.000326  -0.001245   0.014137
    16  H    0.000058   0.004186  -0.001369
    17  H   -0.000116   0.000062  -0.000292
    18  C    0.372123   0.371241   0.329016
    19  H    0.495482  -0.020504  -0.041538
    20  H   -0.020504   0.498571  -0.036137
    21  H   -0.041538  -0.036137   0.607110
 Mulliken atomic charges:
              1
     1  C   -0.174301
     2  C   -0.172839
     3  C   -0.011809
     4  C   -0.172587
     5  C   -0.199835
     6  C    0.235356
     7  H    0.204627
     8  H    0.210255
     9  H    0.209182
    10  H    0.202655
    11  C    0.312677
    12  N   -0.476701
    13  N   -0.562069
    14  C   -0.422627
    15  H    0.192172
    16  H    0.210247
    17  H    0.215853
    18  C   -0.420483
    19  H    0.222833
    20  H    0.211501
    21  H    0.185893
 Sum of Mulliken atomic charges =   0.00000
 Mulliken charges with hydrogens summed into heavy atoms:
              1
     1  C    0.030326
     2  C    0.037416
     3  C   -0.011809
     4  C    0.036594
     5  C    0.002820
     6  C    0.235356
    11  C    0.312677
    12  N   -0.476701
    13  N   -0.562069
    14  C    0.195645
    18  C    0.199744
 Sum of Mulliken charges with hydrogens summed into heavy atoms =   0.00000
 Electronic spatial extent (au):  <R**2>=           2150.3886
 Charge=              0.0000 electrons
 Dipole moment (field-independent basis, Debye):
    X=              5.2266    Y=             -0.2122    Z=              0.7016  Tot=              5.2778
 Quadrupole moment (field-independent basis, Debye-Ang):
   XX=            -82.3430   YY=            -57.1932   ZZ=            -68.4413
   XY=             -2.5708   XZ=              3.7906   YZ=             -0.2455
 Traceless Quadrupole moment (field-independent basis, Debye-Ang):
   XX=            -13.0172   YY=             12.1327   ZZ=              0.8845
   XY=             -2.5708   XZ=              3.7906   YZ=             -0.2455
 Octapole moment (field-independent basis, Debye-Ang**2):
  XXX=            158.0292  YYY=              2.4297  ZZZ=              1.8442  XYY=              1.9698
  XXY=              1.4330  XXZ=              0.8766  XZZ=              2.3977  YZZ=             -0.9229
  YYZ=             -0.8350  XYZ=              5.6324
 Hexadecapole moment (field-independent basis, Debye-Ang**3):
 XXXX=          -2909.6501 YYYY=           -389.8977 ZZZZ=           -137.5762 XXXY=            -35.2473
 XXXZ=             50.8376 YYYX=              1.7382 YYYZ=             -8.0717 ZZZX=              0.3435
 ZZZY=              3.0447 XXYY=           -433.4593 XXZZ=           -419.8525 YYZZ=            -95.2290
 XXYZ=              9.9113 YYXZ=             -0.7569 ZZXY=             -1.9597
 N-N= 5.462914752556D+02 E-N=-2.149087441747D+03  KE= 4.522487370092D+02
 1|1|UNPC-DESKTOP-K2VF0AK|SP|RTD-B3LYP-FC|3-21G|C9H10N2|MELIH|16-Jan-20
 25|0||# td b3lyp/3-21g maxdisk=2GB geom=connectivity||Title Card Requi
 red||0,1|C,0,-2.33356183,-0.70394063,-0.16414458|C,0,-0.93927091,-0.82
 029243,-0.08453879|C,0,-0.1647743,0.28313149,0.29825698|C,0,-0.7845687
 6,1.50290662,0.60144901|C,0,-2.17885969,1.61925834,0.52184354|C,0,-2.9
 5335625,0.51583462,0.13904706|H,0,-2.92490703,-1.54642875,-0.45641947|
 H,0,-0.4660442,-1.75161822,-0.31603128|H,0,-0.1932235,2.34539492,0.893
 72327|H,0,-2.65208669,2.55058309,0.75333955|C,0,1.36741381,0.15527343,
 0.38573215|N,0,2.5081976,0.06007876,0.45086183|N,0,-4.41589924,0.63788
 168,0.05554549|C,0,-5.03498871,-0.1366028,1.14081137|H,0,-4.69895058,0
 .23992765,2.08431718|H,0,-6.09956082,-0.04776583,1.08003131|H,0,-4.757
 08447,-1.16571063,1.04804106|C,0,-4.7976929,2.0517027,0.18299629|H,0,-
 4.34706317,2.61544312,-0.60695915|H,0,-5.86226501,2.14053968,0.1222162
 4|H,0,-4.46165476,2.42823315,1.12650211||Version=IA32W-G09RevA.02|Stat
 e=1-A|HF=-455.9220568|RMSD=6.667e-009|PG=C01 [X(C9H10N2)]||@


 IT IS A CAPITAL MISTAKE TO THEORIZE BEFORE ONE HAS
 DATA.  INSENSIBLY ONE BEGINS TO TWIST FACTS TO SUIT
 THEORIES RATHER THAN THEORIES TO SUIT FACTS.

                                         -- SHERLOCK HOLMES
 Job cpu time:  0 days  0 hours  2 minutes 41.0 seconds.
 File lengths (MBytes):  RWF=     33 Int=      0 D2E=      0 Chk=      3 Scr=      1
 Normal termination of Gaussian 09 at Thu Jan 16 02:13:00 2025.
