 Entering Link 1 = C:\G09W\l1.exe PID=     23328.
  
 Copyright (c) 1988,1990,1992,1993,1995,1998,2003,2009, Gaussian, Inc.
                  All Rights Reserved.
  
 This is part of the Gaussian(R) 09 program.  It is based on
 the Gaussian(R) 03 system (copyright 2003, Gaussian, Inc.),
 the Gaussian(R) 98 system (copyright 1998, Gaussian, Inc.),
 the Gaussian(R) 94 system (copyright 1995, Gaussian, Inc.),
 the Gaussian 92(TM) system (copyright 1992, Gaussian, Inc.),
 the Gaussian 90(TM) system (copyright 1990, Gaussian, Inc.),
 the Gaussian 88(TM) system (copyright 1988, Gaussian, Inc.),
 the Gaussian 86(TM) system (copyright 1986, Carnegie Mellon
 University), and the Gaussian 82(TM) system (copyright 1983,
 Carnegie Mellon University). Gaussian is a federally registered
 trademark of Gaussian, Inc.
  
 This software contains proprietary and confidential information,
 including trade secrets, belonging to Gaussian, Inc.
  
 This software is provided under written license and may be
 used, copied, transmitted, or stored only in accord with that
 written license.
  
 The following legend is applicable only to US Government
 contracts under FAR:
  
                    RESTRICTED RIGHTS LEGEND
  
 Use, reproduction and disclosure by the US Government is
 subject to restrictions as set forth in subparagraphs (a)
 and (c) of the Commercial Computer Software - Restricted
 Rights clause in FAR 52.227-19.
  
 Gaussian, Inc.
 340 Quinnipiac St., Bldg. 40, Wallingford CT 06492
  
  
 ---------------------------------------------------------------
 Warning -- This program may not be used in any manner that
 competes with the business of Gaussian, Inc. or will provide
 assistance to any competitor of Gaussian, Inc.  The licensee
 of this program is prohibited from giving any competitor of
 Gaussian, Inc. access to this program.  By using this program,
 the user acknowledges that Gaussian, Inc. is engaged in the
 business of creating and licensing software in the field of
 computational chemistry and represents and warrants to the
 licensee that it is not a competitor of Gaussian, Inc. and that
 it will not use this program in any manner prohibited above.
 ---------------------------------------------------------------
  

 Cite this work as:
 Gaussian 09, Revision A.02,
 M. J. Frisch, G. W. Trucks, H. B. Schlegel, G. E. Scuseria, 
 M. A. Robb, J. R. Cheeseman, G. Scalmani, V. Barone, B. Mennucci, 
 G. A. Petersson, H. Nakatsuji, M. Caricato, X. Li, H. P. Hratchian, 
 A. F. Izmaylov, J. Bloino, G. Zheng, J. L. Sonnenberg, M. Hada, 
 M. Ehara, K. Toyota, R. Fukuda, J. Hasegawa, M. Ishida, T. Nakajima, 
 Y. Honda, O. Kitao, H. Nakai, T. Vreven, J. A. Montgomery, Jr., 
 J. E. Peralta, F. Ogliaro, M. Bearpark, J. J. Heyd, E. Brothers, 
 K. N. Kudin, V. N. Staroverov, R. Kobayashi, J. Normand, 
 K. Raghavachari, A. Rendell, J. C. Burant, S. S. Iyengar, J. Tomasi, 
 M. Cossi, N. Rega, J. M. Millam, M. Klene, J. E. Knox, J. B. Cross, 
 V. Bakken, C. Adamo, J. Jaramillo, R. Gomperts, R. E. Stratmann, 
 O. Yazyev, A. J. Austin, R. Cammi, C. Pomelli, J. W. Ochterski, 
 R. L. Martin, K. Morokuma, V. G. Zakrzewski, G. A. Voth, 
 P. Salvador, J. J. Dannenberg, S. Dapprich, A. D. Daniels, 
 O. Farkas, J. B. Foresman, J. V. Ortiz, J. Cioslowski, 
 and D. J. Fox, Gaussian, Inc., Wallingford CT, 2009.
 
 ******************************************
 Gaussian 09:  IA32W-G09RevA.02 11-Jun-2009
                16-Jan-2025 
 ******************************************
 %chk=C:\G09W\Final\140tdenergy.chk
 ----------------------------------------------
 # td b3lyp/3-21g maxdisk=2GB geom=connectivity
 ----------------------------------------------
 1/38=1,57=2/1;
 2/12=2,17=6,18=5,40=1/2;
 3/5=5,11=2,16=1,25=1,30=1,74=-5/1,2,8,3;
 4//1;
 5/5=2,38=5/2;
 8/6=1,10=1/1;
 9/42=1/14;
 6/7=2,8=2,9=2,10=2/1;
 99/5=1,9=1/99;
 -------------------
 Title Card Required
 -------------------
 Symbolic Z-matrix:
 Charge =  0 Multiplicity = 1
 C                    -2.33356  -0.70394  -0.16414 
 C                    -0.93927  -0.82029  -0.08454 
 C                    -0.16477   0.28313   0.29826 
 C                    -0.78457   1.50291   0.60145 
 C                    -2.17886   1.61926   0.52184 
 C                    -2.95336   0.51583   0.13905 
 H                    -2.92491  -1.54643  -0.45642 
 H                    -0.46604  -1.75162  -0.31603 
 H                    -0.19322   2.34539   0.89372 
 H                    -2.65209   2.55058   0.75334 
 C                     1.36741   0.15527   0.38573 
 N                     2.5082    0.06008   0.45086 
 N                    -4.4159    0.63788   0.05555 
 C                    -5.04042  -0.58485   0.58071 
 H                    -4.75172  -0.72255   1.60178 
 H                    -6.10499  -0.49602   0.51993 
 H                    -4.71912  -1.42601   0.00267 
 C                    -4.8573    1.79349   0.84967 
 H                    -4.40272   2.68351   0.46741 
 H                    -5.92187   1.88233   0.78889 
 H                    -4.5686    1.65579   1.87074 
 
                          Input orientation:                          
 ---------------------------------------------------------------------
 Center     Atomic      Atomic             Coordinates (Angstroms)
 Number     Number       Type             X           Y           Z
 ---------------------------------------------------------------------
      1          6           0       -2.333562   -0.703941   -0.164145
      2          6           0       -0.939271   -0.820292   -0.084539
      3          6           0       -0.164774    0.283131    0.298257
      4          6           0       -0.784569    1.502907    0.601449
      5          6           0       -2.178860    1.619258    0.521844
      6          6           0       -2.953356    0.515835    0.139047
      7          1           0       -2.924907   -1.546429   -0.456419
      8          1           0       -0.466044   -1.751618   -0.316031
      9          1           0       -0.193224    2.345395    0.893723
     10          1           0       -2.652087    2.550583    0.753340
     11          6           0        1.367414    0.155273    0.385732
     12          7           0        2.508198    0.060079    0.450862
     13          7           0       -4.415899    0.637882    0.055545
     14          6           0       -5.040416   -0.584855    0.580706
     15          1           0       -4.751719   -0.722553    1.601781
     16          1           0       -6.104988   -0.496018    0.519926
     17          1           0       -4.719123   -1.426013    0.002672
     18          6           0       -4.857303    1.793491    0.849667
     19          1           0       -4.402722    2.683510    0.467407
     20          1           0       -5.921875    1.882328    0.788887
     21          1           0       -4.568605    1.655793    1.870742
 ---------------------------------------------------------------------
                    Distance matrix (angstroms):
                    1          2          3          4          5
     1  C    0.000000
     2  C    1.401400   0.000000
     3  C    2.427296   1.401400   0.000000
     4  C    2.802800   2.427296   1.401400   0.000000
     5  C    2.427296   2.802800   2.427296   1.401400   0.000000
     6  C    1.401400   2.427296   2.802800   2.427296   1.401400
     7  H    1.070000   2.146700   3.396345   3.872800   3.396345
     8  H    2.146700   1.070000   2.146700   3.396345   3.872800
     9  H    3.872800   3.396345   2.146700   1.070000   2.146700
    10  H    3.396345   3.872800   3.396345   2.146700   1.070000
    11  C    3.838989   2.548270   1.540000   2.548270   3.838989
    12  N    4.940100   3.598159   2.686600   3.598158   4.940100
    13  N    2.486942   3.772644   4.272800   3.772644   2.486942
    14  C    2.809990   4.161415   4.960349   4.740403   3.612490
    15  H    2.994381   4.169890   4.873462   4.657425   3.642794
    16  H    3.838599   5.211062   5.995194   5.684119   4.459696
    17  H    2.498022   3.829071   4.873462   4.941439   3.999519
    18  C    3.692458   4.801623   4.960349   4.090625   2.704049
    19  H    4.019342   4.957497   4.873462   3.808258   2.466001
    20  H    4.524715   5.735275   5.995194   5.154707   3.761739
    21  H    3.834648   4.808969   4.873462   3.994172   2.744402
                    6          7          8          9         10
     6  C    0.000000
     7  H    2.146700   0.000000
     8  H    3.396345   2.471400   0.000000
     9  H    3.396345   4.942800   4.280590   0.000000
    10  H    2.146700   4.280590   4.942800   2.471400   0.000000
    11  C    4.342800   4.693509   2.736837   2.736837   4.693509
    12  N    5.489400   5.737826   3.566018   3.566016   5.737825
    13  N    1.470000   2.693766   4.631321   4.631321   2.693766
    14  C    2.400500   2.544727   4.805243   5.672708   3.945237
    15  H    2.628174   2.872664   4.806660   5.540174   3.980166
    16  H    3.331921   3.488486   5.837213   6.569803   4.610725
    17  H    2.628174   1.855930   4.277414   5.958293   4.544167
    18  C    2.400500   4.073706   5.762795   4.696826   2.333548
    19  H    2.628174   4.574907   5.981770   4.244520   1.778806
    20  H    3.331921   4.721121   6.647744   5.748293   3.337565
    21  H    2.628174   4.286216   5.763977   4.535866   2.392128
                   11         12         13         14         15
    11  C    0.000000
    12  N    1.146600   0.000000
    13  N    5.812800   6.959400   0.000000
    14  C    6.453378   7.577227   1.470000   0.000000
    15  H    6.300249   7.392125   2.086720   1.070000   0.000000
    16  H    7.501932   8.631395   2.086720   1.070000   1.747303
    17  H    6.300248   7.392124   2.086720   1.070000   1.747303
    18  C    6.453378   7.577226   1.470000   2.400500   2.628174
    19  H    6.300248   7.392123   2.086720   3.331921   3.606919
    20  H    7.501932   8.631395   2.086720   2.628174   2.969085
    21  H    6.300248   7.392124   2.086720   2.628174   2.400500
                   16         17         18         19         20
    16  H    0.000000
    17  H    1.747303   0.000000
    18  C    2.628174   3.331921   0.000000
    19  H    3.606919   4.147803   1.070000   0.000000
    20  H    2.400500   3.606919   1.070000   1.747303   0.000000
    21  H    2.969085   3.606919   1.070000   1.747303   1.747303
                   21
    21  H    0.000000
 Stoichiometry    C9H10N2
 Framework group  C1[X(C9H10N2)]
 Deg. of freedom    57
 Full point group                 C1      NOp   1
 Largest Abelian subgroup         C1      NOp   1
 Largest concise Abelian subgroup C1      NOp   1
                         Standard orientation:                         
 ---------------------------------------------------------------------
 Center     Atomic      Atomic             Coordinates (Angstroms)
 Number     Number       Type             X           Y           Z
 ---------------------------------------------------------------------
      1          6           0        0.214762    1.235204   -0.258782
      2          6           0       -1.181402    1.217946   -0.138997
      3          6           0       -1.858818   -0.002341   -0.012786
      4          6           0       -1.140068   -1.205371   -0.006359
      5          6           0        0.256096   -1.188113   -0.126144
      6          6           0        0.933512    0.032175   -0.252355
      7          1           0        0.731984    2.166920   -0.355148
      8          1           0       -1.730183    2.136486   -0.143903
      9          1           0       -1.657290   -2.137087    0.090007
     10          1           0        0.804878   -2.106652   -0.121234
     11          6           0       -3.393065   -0.021306    0.118842
     12          7           0       -4.535381   -0.035428    0.216845
     13          7           0        2.398020    0.050277   -0.378003
     14          6           0        2.943532    1.166050    0.408362
     15          1           0        2.675290    1.042299    1.436774
     16          1           0        4.009535    1.179226    0.316904
     17          1           0        2.542844    2.088785    0.043795
     18          6           0        2.948498   -1.217406    0.122851
     19          1           0        2.551425   -2.029567   -0.449537
     20          1           0        4.014501   -1.204229    0.031393
     21          1           0        2.680256   -1.341157    1.151264
 ---------------------------------------------------------------------
 Rotational constants (GHZ):      3.4102865      0.5765331      0.5037902
 Standard basis: 3-21G (6D, 7F)
 There are   119 symmetry adapted basis functions of A   symmetry.
 Integral buffers will be    262144 words long.
 Raffenetti 2 integral format.
 Two-electron integral symmetry is turned on.
   119 basis functions,   195 primitive gaussians,   119 cartesian basis functions
    39 alpha electrons       39 beta electrons
       nuclear repulsion energy       546.7913237606 Hartrees.
 NAtoms=   21 NActive=   21 NUniq=   21 SFac= 7.50D-01 NAtFMM=   80 NAOKFM=F Big=F
 One-electron integrals computed using PRISM.
 NBasis=   119 RedAO= T  NBF=   119
 NBsUse=   119 1.00D-06 NBFU=   119
 Harris functional with IExCor=  402 diagonalized for initial guess.
 ExpMin= 1.83D-01 ExpMax= 2.43D+02 ExpMxC= 2.43D+02 IAcc=1 IRadAn=         1 AccDes= 0.00D+00
 HarFok:  IExCor=  402 AccDes= 0.00D+00 IRadAn=         1 IDoV= 1
 ScaDFX=  1.000000  1.000000  1.000000  1.000000
 FoFCou: FMM=F IPFlag=           0 FMFlag=      100000 FMFlg1=           0
         NFxFlg=           0 DoJE=T BraDBF=F KetDBF=T FulRan=T
         Omega=  0.000000  0.000000  1.000000  0.000000  0.000000 ICntrl=     500 IOpCl=  0
         NMat0=    1 NMatS0=    1 NMatT0=    0 NMatD0=    1 NMtDS0=    0 NMtDT0=    0
         I1Cent=           4 NGrid=           0.
 Petite list used in FoFCou.
 Initial guess orbital symmetries:
       Occupied  (A) (A) (A) (A) (A) (A) (A) (A) (A) (A) (A) (A)
                 (A) (A) (A) (A) (A) (A) (A) (A) (A) (A) (A) (A)
                 (A) (A) (A) (A) (A) (A) (A) (A) (A) (A) (A) (A)
                 (A) (A) (A)
       Virtual   (A) (A) (A) (A) (A) (A) (A) (A) (A) (A) (A) (A)
                 (A) (A) (A) (A) (A) (A) (A) (A) (A) (A) (A) (A)
                 (A) (A) (A) (A) (A) (A) (A) (A) (A) (A) (A) (A)
                 (A) (A) (A) (A) (A) (A) (A) (A) (A) (A) (A) (A)
                 (A) (A) (A) (A) (A) (A) (A) (A) (A) (A) (A) (A)
                 (A) (A) (A) (A) (A) (A) (A) (A) (A) (A) (A) (A)
                 (A) (A) (A) (A) (A) (A) (A) (A)
 The electronic state of the initial guess is 1-A.
 Requested convergence on RMS density matrix=1.00D-08 within 128 cycles.
 Requested convergence on MAX density matrix=1.00D-06.
 Requested convergence on             energy=1.00D-06.
 No special actions if energy rises.
 Keep R1 ints in memory in canonical form, NReq=26663108.
 Integral accuracy reduced to 1.0D-05 until final iterations.
 Initial convergence to 1.0D-05 achieved.  Increase integral accuracy.
 SCF Done:  E(RB3LYP) =  -455.921030743     A.U. after   15 cycles
             Convg  =    0.5785D-08             -V/T =  2.0081
 ExpMin= 1.83D-01 ExpMax= 2.43D+02 ExpMxC= 2.43D+02 IAcc=1 IRadAn=         1 AccDes= 0.00D+00
 HarFok:  IExCor=  205 AccDes= 0.00D+00 IRadAn=         1 IDoV=-2
 ScaDFX=  1.000000  1.000000  1.000000  1.000000
 Range of M.O.s used for correlation:    12   119
 NBasis=   119 NAE=    39 NBE=    39 NFC=    11 NFV=     0
 NROrb=    108 NOA=    28 NOB=    28 NVA=    80 NVB=    80
 Would need an additional    46700000 words for in-memory AO integral storage.
 Orbital symmetries:
       Occupied  (A) (A) (A) (A) (A) (A) (A) (A) (A) (A) (A) (A)
                 (A) (A) (A) (A) (A) (A) (A) (A) (A) (A) (A) (A)
                 (A) (A) (A) (A) (A) (A) (A) (A) (A) (A) (A) (A)
                 (A) (A) (A)
       Virtual   (A) (A) (A) (A) (A) (A) (A) (A) (A) (A) (A) (A)
                 (A) (A) (A) (A) (A) (A) (A) (A) (A) (A) (A) (A)
                 (A) (A) (A) (A) (A) (A) (A) (A) (A) (A) (A) (A)
                 (A) (A) (A) (A) (A) (A) (A) (A) (A) (A) (A) (A)
                 (A) (A) (A) (A) (A) (A) (A) (A) (A) (A) (A) (A)
                 (A) (A) (A) (A) (A) (A) (A) (A) (A) (A) (A) (A)
                 (A) (A) (A) (A) (A) (A) (A) (A)
    12 initial guesses have been made.
 Convergence on wavefunction:    0.001000000000000
 Iteration     1 Dimension    12 NMult    12
 CISAX will form    12 AO SS matrices at one time.
 New state      1 was old state      2
 New state      2 was old state      1
 Iteration     2 Dimension    18 NMult    18
 Iteration     3 Dimension    24 NMult    24
 Iteration     4 Dimension    30 NMult    30
 Iteration     5 Dimension    36 NMult    36
 Iteration     6 Dimension    40 NMult    40
 ***********************************************************************
 Excited states from <AA,BB:AA,BB> singles matrix:
 ***********************************************************************
 
 Ground to excited state transition electric dipole moments (Au):
       state          X           Y           Z        Dip. S.      Osc.
         1         0.2216     -0.3322      0.0386      0.1610      0.0184
         2         1.6717      0.0229      0.0291      2.7961      0.3384
         3         0.1714      0.4342     -0.0345      0.2191      0.0320
 Ground to excited state transition velocity dipole moments (Au):
       state          X           Y           Z        Dip. S.      Osc.
         1        -0.0329      0.0460     -0.0098      0.0033      0.0128
         2        -0.2451     -0.0017     -0.0129      0.0602      0.2212
         3        -0.0291     -0.0753      0.0081      0.0066      0.0201
 Ground to excited state transition magnetic dipole moments (Au):
       state          X           Y           Z
         1        -0.0435      0.0645     -0.5301
         2         0.0494      0.2719      0.0575
         3         0.0154     -0.0134      0.2461
 <0|del|b> * <b|rxdel|0> + <0|del|b> * <b|delr+rdel|0>
 Rotatory Strengths (R) in cgs (10**-40 erg-esu-cm/Gauss)
       state          XX          YY          ZZ    R(velocity)
         1        20.7254     13.9824      4.6540     13.1206
 Total R(velocity) tensor for State=          1
                 1             2             3 
      1   0.207254D+02  0.750850D+01 -0.345720D+02
      2   0.548491D+01  0.139824D+02  0.474247D+02
      3   0.447482D+00  0.130715D+01  0.465398D+01
 R(velocity) tensor in inp. orien. for State=          1
                 1             2             3 
      1   0.220530D+02 -0.349565D+00  0.312256D+02
      2   0.436188D+01  0.240828D+02 -0.454064D+02
      3   0.270690D+00  0.334693D+01 -0.677409D+01
         2        -2.8276    -19.6518    -29.3839    -17.2878
 Total R(velocity) tensor for State=          2
                 1             2             3 
      1  -0.282759D+01  0.187113D+03  0.284820D+02
      2   0.220235D+01 -0.196518D+02 -0.391804D+02
      3   0.120510D+01  0.481859D+02 -0.293839D+02
 R(velocity) tensor in inp. orien. for State=          2
                 1             2             3 
      1   0.118639D+02  0.184968D+03  0.174846D+02
      2   0.136992D+01 -0.324431D+02  0.405337D+02
      3  -0.535349D+01 -0.507853D+02 -0.312842D+02
         3         7.1882      0.4681      0.5763      2.7442
 Total R(velocity) tensor for State=          3
                 1             2             3 
      1   0.718822D+01 -0.172717D+01  0.979532D+01
      2   0.245024D+01  0.468106D+00  0.131906D+02
      3  -0.133740D+01  0.578676D+00  0.576279D+00
 R(velocity) tensor in inp. orien. for State=          3
                 1             2             3 
      1   0.709619D+01  0.300746D+00 -0.111257D+02
      2   0.144256D+01  0.339612D+01 -0.117385D+02
      3   0.159046D+01 -0.149031D-01 -0.225971D+01
 1/2[<0|r|b>*<b|rxdel|0> + (<0|rxdel|b>*<b|r|0>)*]
 Rotatory Strengths (R) in cgs (10**-40 erg-esu-cm/Gauss)
       state          XX          YY          ZZ     R(length)     R(au)
         1         6.8094     15.1607     14.4857     12.1519      0.0258
         2       -58.3712     -4.4087     -1.1835    -21.3211     -0.0452
         3        -1.8614      4.1000      6.0044      2.7477      0.0058
  1/2[<0|del|b>*<b|r|0> + (<0|r|b>*<b|del|0>)*] (Au)
       state          X           Y           Z        Dip. S.   Osc.(frdel)
         1        -0.0073     -0.0153     -0.0004      0.0230      0.0153
         2        -0.4097      0.0000     -0.0004      0.4101      0.2734
         3        -0.0050     -0.0327     -0.0003      0.0380      0.0253
 Ground to excited state transition densities written to RWF  633

 Excitation energies and oscillator strengths:
 
 Excited State   1:      Singlet-A      4.6783 eV  265.02 nm  f=0.0184  <S**2>=0.000
      38 -> 40         0.20854
      39 -> 40         0.17858
      39 -> 41         0.64925
 This state for optimization and/or second-order correction.
 Copying the excited state density for this state as the 1-particle RhoCI density.
 
 Excited State   2:      Singlet-A      4.9401 eV  250.98 nm  f=0.3384  <S**2>=0.000
      39 -> 40         0.67039
      39 -> 41        -0.17104
 
 Excited State   3:      Singlet-A      5.9548 eV  208.21 nm  f=0.0320  <S**2>=0.000
      37 -> 41        -0.42601
      38 -> 40         0.53293
      39 -> 41        -0.16132
 SavETr:  write IOETrn=   770 NScale= 10 NData=  16 NLR=1 LETran=      62.

 **********************************************************************

            Population analysis using the SCF density.

 **********************************************************************

 Orbital symmetries:
       Occupied  (A) (A) (A) (A) (A) (A) (A) (A) (A) (A) (A) (A)
                 (A) (A) (A) (A) (A) (A) (A) (A) (A) (A) (A) (A)
                 (A) (A) (A) (A) (A) (A) (A) (A) (A) (A) (A) (A)
                 (A) (A) (A)
       Virtual   (A) (A) (A) (A) (A) (A) (A) (A) (A) (A) (A) (A)
                 (A) (A) (A) (A) (A) (A) (A) (A) (A) (A) (A) (A)
                 (A) (A) (A) (A) (A) (A) (A) (A) (A) (A) (A) (A)
                 (A) (A) (A) (A) (A) (A) (A) (A) (A) (A) (A) (A)
                 (A) (A) (A) (A) (A) (A) (A) (A) (A) (A) (A) (A)
                 (A) (A) (A) (A) (A) (A) (A) (A) (A) (A) (A) (A)
                 (A) (A) (A) (A) (A) (A) (A) (A)
 The electronic state is 1-A.
 Alpha  occ. eigenvalues --  -14.28195 -14.24554 -10.18554 -10.18089 -10.16156
 Alpha  occ. eigenvalues --  -10.15439 -10.15424 -10.15199 -10.15129 -10.14523
 Alpha  occ. eigenvalues --  -10.14401  -0.96227  -0.92736  -0.87453  -0.77588
 Alpha  occ. eigenvalues --   -0.77415  -0.73471  -0.67715  -0.63521  -0.61032
 Alpha  occ. eigenvalues --   -0.57030  -0.51290  -0.50231  -0.48690  -0.47548
 Alpha  occ. eigenvalues --   -0.45778  -0.44325  -0.42069  -0.41366  -0.40298
 Alpha  occ. eigenvalues --   -0.40129  -0.38709  -0.36420  -0.34950  -0.33927
 Alpha  occ. eigenvalues --   -0.33648  -0.28987  -0.27262  -0.21941
 Alpha virt. eigenvalues --   -0.02775  -0.01874   0.05390   0.08398   0.08893
 Alpha virt. eigenvalues --    0.11306   0.12986   0.13242   0.15322   0.16586
 Alpha virt. eigenvalues --    0.17246   0.18342   0.19433   0.19744   0.20129
 Alpha virt. eigenvalues --    0.22835   0.23279   0.25220   0.28749   0.34101
 Alpha virt. eigenvalues --    0.34315   0.34875   0.35808   0.50289   0.54089
 Alpha virt. eigenvalues --    0.57659   0.64640   0.65169   0.66494   0.68833
 Alpha virt. eigenvalues --    0.69054   0.69229   0.71325   0.72090   0.73636
 Alpha virt. eigenvalues --    0.76654   0.77321   0.77926   0.81215   0.81878
 Alpha virt. eigenvalues --    0.84628   0.85452   0.86842   0.92346   0.93153
 Alpha virt. eigenvalues --    0.93546   0.94636   0.99134   0.99848   1.00455
 Alpha virt. eigenvalues --    1.03749   1.04581   1.08111   1.12791   1.14397
 Alpha virt. eigenvalues --    1.16293   1.17955   1.19659   1.20523   1.21367
 Alpha virt. eigenvalues --    1.25405   1.26903   1.29266   1.34904   1.38698
 Alpha virt. eigenvalues --    1.42963   1.46933   1.48260   1.50532   1.53581
 Alpha virt. eigenvalues --    1.54766   1.68016   1.74081   1.75972   1.86861
 Alpha virt. eigenvalues --    1.93411   2.03579   2.45211   2.94852   2.96789
          Condensed to atoms (all electrons):
              1          2          3          4          5          6
     1  C    5.180011   0.457569  -0.083186  -0.025279  -0.064574   0.427467
     2  C    0.457569   5.121273   0.444794  -0.065309  -0.025476  -0.066798
     3  C   -0.083186   0.444794   5.304633   0.447623  -0.082941  -0.025910
     4  C   -0.025279  -0.065309   0.447623   5.127368   0.445051  -0.062713
     5  C   -0.064574  -0.025476  -0.082941   0.445051   5.215475   0.417481
     6  C    0.427467  -0.066798  -0.025910  -0.062713   0.417481   5.046188
     7  H    0.388420  -0.034869   0.003822  -0.000184   0.003731  -0.048194
     8  H   -0.034302   0.392742  -0.039786   0.003443  -0.000080   0.003723
     9  H   -0.000085   0.003446  -0.039694   0.393151  -0.034621   0.003638
    10  H    0.003494  -0.000152   0.003855  -0.035835   0.391922  -0.049634
    11  C    0.003313  -0.059245   0.165566  -0.058956   0.003357  -0.000111
    12  N    0.000000  -0.000210  -0.083854  -0.000225  -0.000001   0.000000
    13  N   -0.049898   0.003001  -0.000218   0.003412  -0.049948   0.285852
    14  C   -0.016377   0.000383  -0.000001  -0.000127   0.002657  -0.088726
    15  H    0.003439  -0.000091  -0.000012  -0.000029   0.001318  -0.004024
    16  H    0.000306  -0.000001   0.000000   0.000001  -0.000102   0.004878
    17  H    0.000533   0.000068   0.000003   0.000000  -0.000083  -0.006752
    18  C    0.003237  -0.000129  -0.000003   0.000410  -0.022299  -0.087457
    19  H   -0.000014  -0.000003  -0.000005   0.000274  -0.002522  -0.005766
    20  H   -0.000079   0.000001   0.000000  -0.000004   0.000585   0.004528
    21  H    0.000421  -0.000003  -0.000011  -0.000271   0.004572  -0.004084
              7          8          9         10         11         12
     1  C    0.388420  -0.034302  -0.000085   0.003494   0.003313   0.000000
     2  C   -0.034869   0.392742   0.003446  -0.000152  -0.059245  -0.000210
     3  C    0.003822  -0.039786  -0.039694   0.003855   0.165566  -0.083854
     4  C   -0.000184   0.003443   0.393151  -0.035835  -0.058956  -0.000225
     5  C    0.003731  -0.000080  -0.034621   0.391922   0.003357  -0.000001
     6  C   -0.048194   0.003723   0.003638  -0.049634  -0.000111   0.000000
     7  H    0.483398  -0.003588   0.000001  -0.000044  -0.000047   0.000000
     8  H   -0.003588   0.473132  -0.000048   0.000001  -0.004491  -0.000108
     9  H    0.000001  -0.000048   0.473338  -0.003560  -0.004493  -0.000108
    10  H   -0.000044   0.000001  -0.003560   0.487660  -0.000048   0.000000
    11  C   -0.000047  -0.004491  -0.004493  -0.000048   4.845249   0.799039
    12  N    0.000000  -0.000108  -0.000108   0.000000   0.799039   6.764175
    13  N   -0.004777  -0.000014  -0.000014  -0.006979   0.000000   0.000000
    14  C    0.000335   0.000001   0.000001   0.000092   0.000000   0.000000
    15  H    0.000428   0.000000   0.000000   0.000038   0.000000   0.000000
    16  H   -0.000074   0.000000   0.000000  -0.000005   0.000000   0.000000
    17  H    0.007840  -0.000001   0.000000  -0.000006   0.000000   0.000000
    18  C    0.000044   0.000001   0.000001   0.001151   0.000000   0.000000
    19  H   -0.000003   0.000000   0.000000   0.005524   0.000000   0.000000
    20  H   -0.000004   0.000000   0.000000   0.000057   0.000000   0.000000
    21  H    0.000015   0.000000   0.000001   0.001350   0.000000   0.000000
             13         14         15         16         17         18
     1  C   -0.049898  -0.016377   0.003439   0.000306   0.000533   0.003237
     2  C    0.003001   0.000383  -0.000091  -0.000001   0.000068  -0.000129
     3  C   -0.000218  -0.000001  -0.000012   0.000000   0.000003  -0.000003
     4  C    0.003412  -0.000127  -0.000029   0.000001   0.000000   0.000410
     5  C   -0.049948   0.002657   0.001318  -0.000102  -0.000083  -0.022299
     6  C    0.285852  -0.088726  -0.004024   0.004878  -0.006752  -0.087457
     7  H   -0.004777   0.000335   0.000428  -0.000074   0.007840   0.000044
     8  H   -0.000014   0.000001   0.000000   0.000000  -0.000001   0.000001
     9  H   -0.000014   0.000001   0.000000   0.000000   0.000000   0.000001
    10  H   -0.006979   0.000092   0.000038  -0.000005  -0.000006   0.001151
    11  C    0.000000   0.000000   0.000000   0.000000   0.000000   0.000000
    12  N    0.000000   0.000000   0.000000   0.000000   0.000000   0.000000
    13  N    7.051704   0.279525  -0.051087  -0.030882  -0.030514   0.279533
    14  C    0.279525   5.267305   0.338033   0.367495   0.368002  -0.092345
    15  H   -0.051087   0.338033   0.579245  -0.035886  -0.036348  -0.004620
    16  H   -0.030882   0.367495  -0.035886   0.503211  -0.021948  -0.003270
    17  H   -0.030514   0.368002  -0.036348  -0.021948   0.497458   0.004789
    18  C    0.279533  -0.092345  -0.004620  -0.003270   0.004789   5.269212
    19  H   -0.029129   0.004782  -0.000323   0.000057  -0.000113   0.369090
    20  H   -0.030458  -0.003458  -0.001157   0.004505   0.000056   0.369507
    21  H   -0.051615  -0.004040   0.013058  -0.001247  -0.000295   0.336204
             19         20         21
     1  C   -0.000014  -0.000079   0.000421
     2  C   -0.000003   0.000001  -0.000003
     3  C   -0.000005   0.000000  -0.000011
     4  C    0.000274  -0.000004  -0.000271
     5  C   -0.002522   0.000585   0.004572
     6  C   -0.005766   0.004528  -0.004084
     7  H   -0.000003  -0.000004   0.000015
     8  H    0.000000   0.000000   0.000000
     9  H    0.000000   0.000000   0.000001
    10  H    0.005524   0.000057   0.001350
    11  C    0.000000   0.000000   0.000000
    12  N    0.000000   0.000000   0.000000
    13  N   -0.029129  -0.030458  -0.051615
    14  C    0.004782  -0.003458  -0.004040
    15  H   -0.000323  -0.001157   0.013058
    16  H    0.000057   0.004505  -0.001247
    17  H   -0.000113   0.000056  -0.000295
    18  C    0.369090   0.369507   0.336204
    19  H    0.501036  -0.021495  -0.040139
    20  H   -0.021495   0.498658  -0.034754
    21  H   -0.040139  -0.034754   0.583787
 Mulliken atomic charges:
              1
     1  C   -0.194416
     2  C   -0.170989
     3  C   -0.014677
     4  C   -0.171802
     5  C   -0.203502
     6  C    0.256415
     7  H    0.203749
     8  H    0.209376
     9  H    0.209046
    10  H    0.201120
    11  C    0.310866
    12  N   -0.478707
    13  N   -0.567494
    14  C   -0.423537
    15  H    0.198020
    16  H    0.212962
    17  H    0.217312
    18  C   -0.423055
    19  H    0.218752
    20  H    0.213512
    21  H    0.197050
 Sum of Mulliken atomic charges =   0.00000
 Mulliken charges with hydrogens summed into heavy atoms:
              1
     1  C    0.009334
     2  C    0.038387
     3  C   -0.014677
     4  C    0.037245
     5  C   -0.002382
     6  C    0.256415
    11  C    0.310866
    12  N   -0.478707
    13  N   -0.567494
    14  C    0.204756
    18  C    0.206258
 Sum of Mulliken charges with hydrogens summed into heavy atoms =   0.00000
 Electronic spatial extent (au):  <R**2>=           2150.2149
 Charge=              0.0000 electrons
 Dipole moment (field-independent basis, Debye):
    X=              5.5492    Y=             -0.0457    Z=              0.8501  Tot=              5.6141
 Quadrupole moment (field-independent basis, Debye-Ang):
   XX=            -82.0923   YY=            -56.0612   ZZ=            -69.5902
   XY=             -0.6728   XZ=              4.2305   YZ=             -0.0615
 Traceless Quadrupole moment (field-independent basis, Debye-Ang):
   XX=            -12.8444   YY=             13.1867   ZZ=             -0.3423
   XY=             -0.6728   XZ=              4.2305   YZ=             -0.0615
 Octapole moment (field-independent basis, Debye-Ang**2):
  XXX=            161.8465  YYY=              0.6923  ZZZ=              3.4932  XYY=              4.1071
  XXY=              0.3771  XXZ=              1.7213  XZZ=              0.9454  YZZ=             -0.2970
  YYZ=             -1.5595  XYZ=              1.5767
 Hexadecapole moment (field-independent basis, Debye-Ang**3):
 XXXX=          -2910.1829 YYYY=           -418.0055 ZZZZ=           -102.9069 XXXY=             -9.3957
 XXXZ=             57.6787 YYYX=              0.4837 YYYZ=             -2.1981 ZZZX=              3.2197
 ZZZY=              0.8213 XXYY=           -430.3290 XXZZ=           -420.5736 YYZZ=            -99.3908
 XXYZ=              2.7127 YYXZ=             -3.1121 ZZXY=             -0.6242
 N-N= 5.467913237606D+02 E-N=-2.150027567946D+03  KE= 4.522424759979D+02
 1|1|UNPC-DESKTOP-K2VF0AK|SP|RTD-B3LYP-FC|3-21G|C9H10N2|MELIH|16-Jan-20
 25|0||# td b3lyp/3-21g maxdisk=2GB geom=connectivity||Title Card Requi
 red||0,1|C,0,-2.33356183,-0.70394063,-0.16414458|C,0,-0.93927091,-0.82
 029243,-0.08453879|C,0,-0.1647743,0.28313149,0.29825698|C,0,-0.7845687
 6,1.50290662,0.60144901|C,0,-2.17885969,1.61925834,0.52184354|C,0,-2.9
 5335625,0.51583462,0.13904706|H,0,-2.92490703,-1.54642875,-0.45641947|
 H,0,-0.4660442,-1.75161822,-0.31603128|H,0,-0.1932235,2.34539492,0.893
 72327|H,0,-2.65208669,2.55058309,0.75333955|C,0,1.36741381,0.15527343,
 0.38573215|N,0,2.5081976,0.06007876,0.45086183|N,0,-4.41589924,0.63788
 168,0.05554549|C,0,-5.04041637,-0.58485474,0.58070642|H,0,-4.7517185,-
 0.72255278,1.60178076|H,0,-6.10498848,-0.49601777,0.51992636|H,0,-4.71
 912262,-1.4260127,0.00267214|C,0,-4.8573028,1.7934912,0.84966734|H,0,-
 4.40272231,2.68351024,0.46740734|H,0,-5.92187491,1.88232817,0.78888729
 |H,0,-4.56860492,1.65579315,1.87074169||Version=IA32W-G09RevA.02|State
 =1-A|HF=-455.9210307|RMSD=5.785e-009|PG=C01 [X(C9H10N2)]||@


 ERROR IS THE FORCE THAT WELDS MEN TOGETHER....
 TRUTH IS COMMUNICATED TO MEN ONLY BY DEEDS OF TRUTH.
           TOLSTOI,MY RELIGION
 Job cpu time:  0 days  0 hours  2 minutes 45.0 seconds.
 File lengths (MBytes):  RWF=     33 Int=      0 D2E=      0 Chk=      3 Scr=      1
 Normal termination of Gaussian 09 at Thu Jan 16 01:48:47 2025.
