 Entering Link 1 = C:\G09W\l1.exe PID=     17424.
  
 Copyright (c) 1988,1990,1992,1993,1995,1998,2003,2009, Gaussian, Inc.
                  All Rights Reserved.
  
 This is part of the Gaussian(R) 09 program.  It is based on
 the Gaussian(R) 03 system (copyright 2003, Gaussian, Inc.),
 the Gaussian(R) 98 system (copyright 1998, Gaussian, Inc.),
 the Gaussian(R) 94 system (copyright 1995, Gaussian, Inc.),
 the Gaussian 92(TM) system (copyright 1992, Gaussian, Inc.),
 the Gaussian 90(TM) system (copyright 1990, Gaussian, Inc.),
 the Gaussian 88(TM) system (copyright 1988, Gaussian, Inc.),
 the Gaussian 86(TM) system (copyright 1986, Carnegie Mellon
 University), and the Gaussian 82(TM) system (copyright 1983,
 Carnegie Mellon University). Gaussian is a federally registered
 trademark of Gaussian, Inc.
  
 This software contains proprietary and confidential information,
 including trade secrets, belonging to Gaussian, Inc.
  
 This software is provided under written license and may be
 used, copied, transmitted, or stored only in accord with that
 written license.
  
 The following legend is applicable only to US Government
 contracts under FAR:
  
                    RESTRICTED RIGHTS LEGEND
  
 Use, reproduction and disclosure by the US Government is
 subject to restrictions as set forth in subparagraphs (a)
 and (c) of the Commercial Computer Software - Restricted
 Rights clause in FAR 52.227-19.
  
 Gaussian, Inc.
 340 Quinnipiac St., Bldg. 40, Wallingford CT 06492
  
  
 ---------------------------------------------------------------
 Warning -- This program may not be used in any manner that
 competes with the business of Gaussian, Inc. or will provide
 assistance to any competitor of Gaussian, Inc.  The licensee
 of this program is prohibited from giving any competitor of
 Gaussian, Inc. access to this program.  By using this program,
 the user acknowledges that Gaussian, Inc. is engaged in the
 business of creating and licensing software in the field of
 computational chemistry and represents and warrants to the
 licensee that it is not a competitor of Gaussian, Inc. and that
 it will not use this program in any manner prohibited above.
 ---------------------------------------------------------------
  

 Cite this work as:
 Gaussian 09, Revision A.02,
 M. J. Frisch, G. W. Trucks, H. B. Schlegel, G. E. Scuseria, 
 M. A. Robb, J. R. Cheeseman, G. Scalmani, V. Barone, B. Mennucci, 
 G. A. Petersson, H. Nakatsuji, M. Caricato, X. Li, H. P. Hratchian, 
 A. F. Izmaylov, J. Bloino, G. Zheng, J. L. Sonnenberg, M. Hada, 
 M. Ehara, K. Toyota, R. Fukuda, J. Hasegawa, M. Ishida, T. Nakajima, 
 Y. Honda, O. Kitao, H. Nakai, T. Vreven, J. A. Montgomery, Jr., 
 J. E. Peralta, F. Ogliaro, M. Bearpark, J. J. Heyd, E. Brothers, 
 K. N. Kudin, V. N. Staroverov, R. Kobayashi, J. Normand, 
 K. Raghavachari, A. Rendell, J. C. Burant, S. S. Iyengar, J. Tomasi, 
 M. Cossi, N. Rega, J. M. Millam, M. Klene, J. E. Knox, J. B. Cross, 
 V. Bakken, C. Adamo, J. Jaramillo, R. Gomperts, R. E. Stratmann, 
 O. Yazyev, A. J. Austin, R. Cammi, C. Pomelli, J. W. Ochterski, 
 R. L. Martin, K. Morokuma, V. G. Zakrzewski, G. A. Voth, 
 P. Salvador, J. J. Dannenberg, S. Dapprich, A. D. Daniels, 
 O. Farkas, J. B. Foresman, J. V. Ortiz, J. Cioslowski, 
 and D. J. Fox, Gaussian, Inc., Wallingford CT, 2009.
 
 ******************************************
 Gaussian 09:  IA32W-G09RevA.02 11-Jun-2009
                16-Jan-2025 
 ******************************************
 %chk=C:\G09W\Final\160tdenergy.chk
 ----------------------------------
 # td b3lyp/3-21g geom=connectivity
 ----------------------------------
 1/38=1,57=2/1;
 2/12=2,17=6,18=5,40=1/2;
 3/5=5,11=2,16=1,25=1,30=1,74=-5/1,2,8,3;
 4//1;
 5/5=2,38=5/2;
 8/6=1,10=1/1;
 9/42=1/14;
 6/7=2,8=2,9=2,10=2/1;
 99/5=1,9=1/99;
 -------------------
 Title Card Required
 -------------------
 Symbolic Z-matrix:
 Charge =  0 Multiplicity = 1
 C                    -2.33356  -0.70394  -0.16414 
 C                    -0.93927  -0.82029  -0.08454 
 C                    -0.16477   0.28313   0.29826 
 C                    -0.78457   1.50291   0.60145 
 C                    -2.17886   1.61926   0.52184 
 C                    -2.95336   0.51583   0.13905 
 H                    -2.92491  -1.54643  -0.45642 
 H                    -0.46604  -1.75162  -0.31603 
 H                    -0.19322   2.34539   0.89372 
 H                    -2.65209   2.55058   0.75334 
 C                     1.36741   0.15527   0.38573 
 N                     2.5082    0.06008   0.45086 
 N                    -4.4159    0.63788   0.05555 
 C                    -5.02331  -0.6995    0.11354 
 H                    -4.75694  -1.17253   1.0356 
 H                    -6.08788  -0.61066   0.05276 
 H                    -4.66724  -1.28878  -0.70552 
 C                    -4.90508   1.44745   1.1808 
 H                    -4.46296   2.42092   1.13858 
 H                    -5.96966   1.53629   1.12002 
 H                    -4.63872   0.97442   2.10286 
 
                          Input orientation:                          
 ---------------------------------------------------------------------
 Center     Atomic      Atomic             Coordinates (Angstroms)
 Number     Number       Type             X           Y           Z
 ---------------------------------------------------------------------
      1          6           0       -2.333562   -0.703941   -0.164145
      2          6           0       -0.939271   -0.820292   -0.084539
      3          6           0       -0.164774    0.283131    0.298257
      4          6           0       -0.784569    1.502907    0.601449
      5          6           0       -2.178860    1.619258    0.521844
      6          6           0       -2.953356    0.515835    0.139047
      7          1           0       -2.924907   -1.546429   -0.456419
      8          1           0       -0.466044   -1.751618   -0.316031
      9          1           0       -0.193224    2.345395    0.893723
     10          1           0       -2.652087    2.550583    0.753340
     11          6           0        1.367414    0.155273    0.385732
     12          7           0        2.508198    0.060079    0.450862
     13          7           0       -4.415899    0.637882    0.055545
     14          6           0       -5.023311   -0.699499    0.113544
     15          1           0       -4.756943   -1.172526    1.035603
     16          1           0       -6.087883   -0.610662    0.052764
     17          1           0       -4.667237   -1.288776   -0.705519
     18          6           0       -4.905085    1.447449    1.180800
     19          1           0       -4.462955    2.420917    1.138583
     20          1           0       -5.969657    1.536286    1.120020
     21          1           0       -4.638717    0.974422    2.102859
 ---------------------------------------------------------------------
                    Distance matrix (angstroms):
                    1          2          3          4          5
     1  C    0.000000
     2  C    1.401400   0.000000
     3  C    2.427296   1.401400   0.000000
     4  C    2.802800   2.427296   1.401400   0.000000
     5  C    2.427296   2.802800   2.427296   1.401400   0.000000
     6  C    1.401400   2.427296   2.802800   2.427296   1.401400
     7  H    1.070000   2.146700   3.396345   3.872800   3.396345
     8  H    2.146700   1.070000   2.146700   3.396345   3.872800
     9  H    3.872800   3.396345   2.146700   1.070000   2.146700
    10  H    3.396345   3.872800   3.396345   2.146700   1.070000
    11  C    3.838989   2.548270   1.540000   2.548270   3.838989
    12  N    4.940100   3.598159   2.686600   3.598158   4.940100
    13  N    2.486942   3.772644   4.272800   3.772644   2.486942
    14  C    2.704049   4.090625   4.960349   4.801623   3.692458
    15  H    2.744402   3.994172   4.873462   4.808970   3.834648
    16  H    3.761739   5.154707   5.995194   5.735275   4.524715
    17  H    2.466001   3.808258   4.873462   4.957497   4.019342
    18  C    3.612490   4.740403   4.960349   4.161415   2.809990
    19  H    3.999519   4.941439   4.873462   3.829071   2.498022
    20  H    4.459695   5.684119   5.995194   5.211062   3.838599
    21  H    3.642794   4.657425   4.873462   4.169890   2.994381
                    6          7          8          9         10
     6  C    0.000000
     7  H    2.146700   0.000000
     8  H    3.396345   2.471400   0.000000
     9  H    3.396345   4.942800   4.280590   0.000000
    10  H    2.146700   4.280590   4.942800   2.471400   0.000000
    11  C    4.342800   4.693509   2.736837   2.736837   4.693509
    12  N    5.489400   5.737826   3.566018   3.566016   5.737825
    13  N    1.470000   2.693766   4.631321   4.631321   2.693766
    14  C    2.400500   2.333549   4.696826   5.762795   4.073706
    15  H    2.628174   2.392131   4.535866   5.763977   4.286215
    16  H    3.331921   3.337566   5.748293   6.647744   4.721120
    17  H    2.628174   1.778806   4.244520   5.981770   4.574908
    18  C    2.400500   3.945237   5.672708   4.805243   2.544725
    19  H    2.628174   4.544167   5.958293   4.277414   1.855928
    20  H    3.331921   4.610726   6.569803   5.837213   3.488485
    21  H    2.628174   3.980168   5.540173   4.806661   2.872662
                   11         12         13         14         15
    11  C    0.000000
    12  N    1.146600   0.000000
    13  N    5.812800   6.959400   0.000000
    14  C    6.453378   7.577227   1.470000   0.000000
    15  H    6.300249   7.392125   2.086720   1.070000   0.000000
    16  H    7.501932   8.631395   2.086720   1.070000   1.747303
    17  H    6.300248   7.392124   2.086720   1.070000   1.747303
    18  C    6.453378   7.577227   1.470000   2.400500   2.628174
    19  H    6.300248   7.392123   2.086720   3.331921   3.606919
    20  H    7.501932   8.631395   2.086720   2.628174   2.969085
    21  H    6.300249   7.392124   2.086720   2.628174   2.400500
                   16         17         18         19         20
    16  H    0.000000
    17  H    1.747303   0.000000
    18  C    2.628174   3.331921   0.000000
    19  H    3.606919   4.147803   1.070000   0.000000
    20  H    2.400500   3.606919   1.070000   1.747303   0.000000
    21  H    2.969085   3.606919   1.070000   1.747303   1.747303
                   21
    21  H    0.000000
 Stoichiometry    C9H10N2
 Framework group  C1[X(C9H10N2)]
 Deg. of freedom    57
 Full point group                 C1      NOp   1
 Largest Abelian subgroup         C1      NOp   1
 Largest concise Abelian subgroup C1      NOp   1
                         Standard orientation:                         
 ---------------------------------------------------------------------
 Center     Atomic      Atomic             Coordinates (Angstroms)
 Number     Number       Type             X           Y           Z
 ---------------------------------------------------------------------
      1          6           0       -0.256097   -1.188113   -0.126144
      2          6           0        1.140068   -1.205371   -0.006358
      3          6           0        1.858818   -0.002342   -0.012786
      4          6           0        1.181403    1.217946   -0.138997
      5          6           0       -0.214762    1.235204   -0.258782
      6          6           0       -0.933512    0.032174   -0.252355
      7          1           0       -0.804878   -2.106653   -0.121238
      8          1           0        1.657289   -2.137088    0.090008
      9          1           0        1.730184    2.136485   -0.143904
     10          1           0       -0.731984    2.166920   -0.355145
     11          6           0        3.393065   -0.021307    0.118842
     12          7           0        4.535382   -0.035426    0.216845
     13          7           0       -2.398020    0.050277   -0.378003
     14          6           0       -2.948498   -1.217405    0.122851
     15          1           0       -2.680257   -1.341156    1.151264
     16          1           0       -4.014501   -1.204228    0.031393
     17          1           0       -2.551426   -2.029566   -0.449536
     18          6           0       -2.943532    1.166050    0.408362
     19          1           0       -2.542843    2.088785    0.043795
     20          1           0       -4.009534    1.179227    0.316904
     21          1           0       -2.675290    1.042299    1.436774
 ---------------------------------------------------------------------
 Rotational constants (GHZ):      3.4102865      0.5765331      0.5037902
 Standard basis: 3-21G (6D, 7F)
 There are   119 symmetry adapted basis functions of A   symmetry.
 Integral buffers will be    262144 words long.
 Raffenetti 2 integral format.
 Two-electron integral symmetry is turned on.
   119 basis functions,   195 primitive gaussians,   119 cartesian basis functions
    39 alpha electrons       39 beta electrons
       nuclear repulsion energy       546.7913240219 Hartrees.
 NAtoms=   21 NActive=   21 NUniq=   21 SFac= 7.50D-01 NAtFMM=   80 NAOKFM=F Big=F
 One-electron integrals computed using PRISM.
 NBasis=   119 RedAO= T  NBF=   119
 NBsUse=   119 1.00D-06 NBFU=   119
 Harris functional with IExCor=  402 diagonalized for initial guess.
 ExpMin= 1.83D-01 ExpMax= 2.43D+02 ExpMxC= 2.43D+02 IAcc=1 IRadAn=         1 AccDes= 0.00D+00
 HarFok:  IExCor=  402 AccDes= 0.00D+00 IRadAn=         1 IDoV= 1
 ScaDFX=  1.000000  1.000000  1.000000  1.000000
 FoFCou: FMM=F IPFlag=           0 FMFlag=      100000 FMFlg1=           0
         NFxFlg=           0 DoJE=T BraDBF=F KetDBF=T FulRan=T
         Omega=  0.000000  0.000000  1.000000  0.000000  0.000000 ICntrl=     500 IOpCl=  0
         NMat0=    1 NMatS0=    1 NMatT0=    0 NMatD0=    1 NMtDS0=    0 NMtDT0=    0
         I1Cent=           4 NGrid=           0.
 Petite list used in FoFCou.
 Initial guess orbital symmetries:
       Occupied  (A) (A) (A) (A) (A) (A) (A) (A) (A) (A) (A) (A)
                 (A) (A) (A) (A) (A) (A) (A) (A) (A) (A) (A) (A)
                 (A) (A) (A) (A) (A) (A) (A) (A) (A) (A) (A) (A)
                 (A) (A) (A)
       Virtual   (A) (A) (A) (A) (A) (A) (A) (A) (A) (A) (A) (A)
                 (A) (A) (A) (A) (A) (A) (A) (A) (A) (A) (A) (A)
                 (A) (A) (A) (A) (A) (A) (A) (A) (A) (A) (A) (A)
                 (A) (A) (A) (A) (A) (A) (A) (A) (A) (A) (A) (A)
                 (A) (A) (A) (A) (A) (A) (A) (A) (A) (A) (A) (A)
                 (A) (A) (A) (A) (A) (A) (A) (A) (A) (A) (A) (A)
                 (A) (A) (A) (A) (A) (A) (A) (A)
 The electronic state of the initial guess is 1-A.
 Requested convergence on RMS density matrix=1.00D-08 within 128 cycles.
 Requested convergence on MAX density matrix=1.00D-06.
 Requested convergence on             energy=1.00D-06.
 No special actions if energy rises.
 Keep R1 ints in memory in canonical form, NReq=26663108.
 Integral accuracy reduced to 1.0D-05 until final iterations.
 Initial convergence to 1.0D-05 achieved.  Increase integral accuracy.
 SCF Done:  E(RB3LYP) =  -455.921030731     A.U. after   15 cycles
             Convg  =    0.5785D-08             -V/T =  2.0081
 ExpMin= 1.83D-01 ExpMax= 2.43D+02 ExpMxC= 2.43D+02 IAcc=1 IRadAn=         1 AccDes= 0.00D+00
 HarFok:  IExCor=  205 AccDes= 0.00D+00 IRadAn=         1 IDoV=-2
 ScaDFX=  1.000000  1.000000  1.000000  1.000000
 Range of M.O.s used for correlation:    12   119
 NBasis=   119 NAE=    39 NBE=    39 NFC=    11 NFV=     0
 NROrb=    108 NOA=    28 NOB=    28 NVA=    80 NVB=    80
 Would need an additional    46700000 words for in-memory AO integral storage.
 Orbital symmetries:
       Occupied  (A) (A) (A) (A) (A) (A) (A) (A) (A) (A) (A) (A)
                 (A) (A) (A) (A) (A) (A) (A) (A) (A) (A) (A) (A)
                 (A) (A) (A) (A) (A) (A) (A) (A) (A) (A) (A) (A)
                 (A) (A) (A)
       Virtual   (A) (A) (A) (A) (A) (A) (A) (A) (A) (A) (A) (A)
                 (A) (A) (A) (A) (A) (A) (A) (A) (A) (A) (A) (A)
                 (A) (A) (A) (A) (A) (A) (A) (A) (A) (A) (A) (A)
                 (A) (A) (A) (A) (A) (A) (A) (A) (A) (A) (A) (A)
                 (A) (A) (A) (A) (A) (A) (A) (A) (A) (A) (A) (A)
                 (A) (A) (A) (A) (A) (A) (A) (A) (A) (A) (A) (A)
                 (A) (A) (A) (A) (A) (A) (A) (A)
    12 initial guesses have been made.
 Convergence on wavefunction:    0.001000000000000
 Iteration     1 Dimension    12 NMult    12
 CISAX will form    12 AO SS matrices at one time.
 New state      1 was old state      2
 New state      2 was old state      1
 Iteration     2 Dimension    18 NMult    18
 Iteration     3 Dimension    24 NMult    24
 Iteration     4 Dimension    30 NMult    30
 Iteration     5 Dimension    36 NMult    36
 Iteration     6 Dimension    40 NMult    40
 ***********************************************************************
 Excited states from <AA,BB:AA,BB> singles matrix:
 ***********************************************************************
 
 Ground to excited state transition electric dipole moments (Au):
       state          X           Y           Z        Dip. S.      Osc.
         1        -0.2216     -0.3322      0.0386      0.1610      0.0184
         2        -1.6717      0.0229      0.0291      2.7961      0.3384
         3        -0.1714      0.4342     -0.0345      0.2191      0.0320
 Ground to excited state transition velocity dipole moments (Au):
       state          X           Y           Z        Dip. S.      Osc.
         1         0.0329      0.0460     -0.0098      0.0033      0.0128
         2         0.2451     -0.0017     -0.0129      0.0602      0.2212
         3         0.0291     -0.0753      0.0081      0.0066      0.0201
 Ground to excited state transition magnetic dipole moments (Au):
       state          X           Y           Z
         1        -0.0435     -0.0645      0.5301
         2         0.0494     -0.2719     -0.0575
         3         0.0154      0.0134     -0.2461
 <0|del|b> * <b|rxdel|0> + <0|del|b> * <b|delr+rdel|0>
 Rotatory Strengths (R) in cgs (10**-40 erg-esu-cm/Gauss)
       state          XX          YY          ZZ    R(velocity)
         1       -20.7253    -13.9823     -4.6540    -13.1205
 Total R(velocity) tensor for State=          1
                 1             2             3 
      1  -0.207253D+02  0.750843D+01 -0.345721D+02
      2   0.548491D+01 -0.139823D+02 -0.474247D+02
      3   0.447482D+00 -0.130715D+01 -0.465399D+01
 R(velocity) tensor in inp. orien. for State=          1
                 1             2             3 
      1  -0.202499D+02  0.196531D+02 -0.319582D+02
      2   0.510937D+01  0.142621D+01 -0.436576D+02
      3   0.229742D+01  0.753307D+00 -0.205379D+02
         2         2.8276     19.6518     29.3839     17.2878
 Total R(velocity) tensor for State=          2
                 1             2             3 
      1   0.282762D+01  0.187113D+03  0.284817D+02
      2   0.220236D+01  0.196518D+02  0.391804D+02
      3   0.120509D+01 -0.481859D+02  0.293839D+02
 R(velocity) tensor in inp. orien. for State=          2
                 1             2             3 
      1   0.118789D+02  0.166239D+03  0.914439D+02
      2   0.290393D+01  0.163414D+02  0.331843D+02
      3  -0.166529D-01 -0.535652D+02  0.236430D+02
         3        -7.1883     -0.4681     -0.5764     -2.7443
 Total R(velocity) tensor for State=          3
                 1             2             3 
      1  -0.718831D+01 -0.172720D+01  0.979506D+01
      2   0.245024D+01 -0.468115D+00 -0.131906D+02
      3  -0.133739D+01 -0.578674D+00 -0.576395D+00
 R(velocity) tensor in inp. orien. for State=          3
                 1             2             3 
      1  -0.710717D+01 -0.441698D+01  0.818322D+01
      2   0.299935D+01  0.394753D+01 -0.120251D+02
      3  -0.350091D+00  0.111352D+01 -0.507318D+01
 1/2[<0|r|b>*<b|rxdel|0> + (<0|rxdel|b>*<b|r|0>)*]
 Rotatory Strengths (R) in cgs (10**-40 erg-esu-cm/Gauss)
       state          XX          YY          ZZ     R(length)     R(au)
         1        -6.8094    -15.1606    -14.4858    -12.1520     -0.0258
         2        58.3710      4.4088      1.1835     21.3211      0.0452
         3         1.8614     -4.1003     -6.0044     -2.7478     -0.0058
  1/2[<0|del|b>*<b|r|0> + (<0|r|b>*<b|del|0>)*] (Au)
       state          X           Y           Z        Dip. S.   Osc.(frdel)
         1        -0.0073     -0.0153     -0.0004      0.0230      0.0153
         2        -0.4097      0.0000     -0.0004      0.4101      0.2734
         3        -0.0050     -0.0327     -0.0003      0.0380      0.0253
 Ground to excited state transition densities written to RWF  633

 Excitation energies and oscillator strengths:
 
 Excited State   1:      Singlet-A      4.6783 eV  265.02 nm  f=0.0184  <S**2>=0.000
      38 -> 40         0.20854
      39 -> 40         0.17858
      39 -> 41         0.64925
 This state for optimization and/or second-order correction.
 Copying the excited state density for this state as the 1-particle RhoCI density.
 
 Excited State   2:      Singlet-A      4.9401 eV  250.98 nm  f=0.3384  <S**2>=0.000
      39 -> 40         0.67039
      39 -> 41        -0.17104
 
 Excited State   3:      Singlet-A      5.9548 eV  208.21 nm  f=0.0320  <S**2>=0.000
      37 -> 41        -0.42601
      38 -> 40         0.53293
      39 -> 41        -0.16132
 SavETr:  write IOETrn=   770 NScale= 10 NData=  16 NLR=1 LETran=      62.

 **********************************************************************

            Population analysis using the SCF density.

 **********************************************************************

 Orbital symmetries:
       Occupied  (A) (A) (A) (A) (A) (A) (A) (A) (A) (A) (A) (A)
                 (A) (A) (A) (A) (A) (A) (A) (A) (A) (A) (A) (A)
                 (A) (A) (A) (A) (A) (A) (A) (A) (A) (A) (A) (A)
                 (A) (A) (A)
       Virtual   (A) (A) (A) (A) (A) (A) (A) (A) (A) (A) (A) (A)
                 (A) (A) (A) (A) (A) (A) (A) (A) (A) (A) (A) (A)
                 (A) (A) (A) (A) (A) (A) (A) (A) (A) (A) (A) (A)
                 (A) (A) (A) (A) (A) (A) (A) (A) (A) (A) (A) (A)
                 (A) (A) (A) (A) (A) (A) (A) (A) (A) (A) (A) (A)
                 (A) (A) (A) (A) (A) (A) (A) (A) (A) (A) (A) (A)
                 (A) (A) (A) (A) (A) (A) (A) (A)
 The electronic state is 1-A.
 Alpha  occ. eigenvalues --  -14.28195 -14.24554 -10.18554 -10.18089 -10.16156
 Alpha  occ. eigenvalues --  -10.15439 -10.15424 -10.15199 -10.15129 -10.14523
 Alpha  occ. eigenvalues --  -10.14401  -0.96227  -0.92736  -0.87453  -0.77588
 Alpha  occ. eigenvalues --   -0.77415  -0.73471  -0.67715  -0.63521  -0.61032
 Alpha  occ. eigenvalues --   -0.57030  -0.51290  -0.50231  -0.48690  -0.47548
 Alpha  occ. eigenvalues --   -0.45778  -0.44325  -0.42069  -0.41366  -0.40298
 Alpha  occ. eigenvalues --   -0.40129  -0.38709  -0.36420  -0.34950  -0.33927
 Alpha  occ. eigenvalues --   -0.33648  -0.28987  -0.27262  -0.21941
 Alpha virt. eigenvalues --   -0.02775  -0.01874   0.05390   0.08398   0.08893
 Alpha virt. eigenvalues --    0.11306   0.12986   0.13242   0.15322   0.16586
 Alpha virt. eigenvalues --    0.17246   0.18342   0.19433   0.19744   0.20129
 Alpha virt. eigenvalues --    0.22835   0.23279   0.25220   0.28749   0.34101
 Alpha virt. eigenvalues --    0.34315   0.34875   0.35808   0.50289   0.54089
 Alpha virt. eigenvalues --    0.57659   0.64640   0.65169   0.66494   0.68833
 Alpha virt. eigenvalues --    0.69054   0.69229   0.71325   0.72090   0.73636
 Alpha virt. eigenvalues --    0.76654   0.77321   0.77926   0.81215   0.81878
 Alpha virt. eigenvalues --    0.84628   0.85452   0.86842   0.92346   0.93153
 Alpha virt. eigenvalues --    0.93546   0.94636   0.99134   0.99848   1.00455
 Alpha virt. eigenvalues --    1.03749   1.04581   1.08111   1.12791   1.14397
 Alpha virt. eigenvalues --    1.16293   1.17955   1.19659   1.20523   1.21367
 Alpha virt. eigenvalues --    1.25405   1.26903   1.29266   1.34904   1.38698
 Alpha virt. eigenvalues --    1.42963   1.46933   1.48260   1.50532   1.53581
 Alpha virt. eigenvalues --    1.54766   1.68016   1.74081   1.75972   1.86861
 Alpha virt. eigenvalues --    1.93411   2.03579   2.45211   2.94852   2.96789
          Condensed to atoms (all electrons):
              1          2          3          4          5          6
     1  C    5.215475   0.445051  -0.082941  -0.025476  -0.064574   0.417481
     2  C    0.445051   5.127368   0.447623  -0.065309  -0.025279  -0.062713
     3  C   -0.082941   0.447623   5.304633   0.444794  -0.083186  -0.025910
     4  C   -0.025476  -0.065309   0.444794   5.121273   0.457569  -0.066798
     5  C   -0.064574  -0.025279  -0.083186   0.457569   5.180011   0.427467
     6  C    0.417481  -0.062713  -0.025910  -0.066798   0.427467   5.046189
     7  H    0.391922  -0.035835   0.003855  -0.000152   0.003494  -0.049634
     8  H   -0.034621   0.393151  -0.039694   0.003446  -0.000085   0.003638
     9  H   -0.000080   0.003443  -0.039786   0.392742  -0.034302   0.003723
    10  H    0.003731  -0.000184   0.003822  -0.034869   0.388420  -0.048194
    11  C    0.003357  -0.058955   0.165566  -0.059245   0.003313  -0.000111
    12  N   -0.000001  -0.000225  -0.083854  -0.000210   0.000000   0.000000
    13  N   -0.049948   0.003412  -0.000218   0.003001  -0.049898   0.285852
    14  C   -0.022299   0.000410  -0.000003  -0.000129   0.003237  -0.087457
    15  H    0.004572  -0.000271  -0.000011  -0.000003   0.000421  -0.004084
    16  H    0.000585  -0.000004   0.000000   0.000001  -0.000079   0.004528
    17  H   -0.002522   0.000274  -0.000005  -0.000003  -0.000014  -0.005766
    18  C    0.002657  -0.000127  -0.000001   0.000383  -0.016377  -0.088726
    19  H   -0.000083   0.000000   0.000003   0.000068   0.000533  -0.006752
    20  H   -0.000102   0.000001   0.000000  -0.000001   0.000306   0.004878
    21  H    0.001318  -0.000029  -0.000012  -0.000091   0.003439  -0.004024
              7          8          9         10         11         12
     1  C    0.391922  -0.034621  -0.000080   0.003731   0.003357  -0.000001
     2  C   -0.035835   0.393151   0.003443  -0.000184  -0.058955  -0.000225
     3  C    0.003855  -0.039694  -0.039786   0.003822   0.165566  -0.083854
     4  C   -0.000152   0.003446   0.392742  -0.034869  -0.059245  -0.000210
     5  C    0.003494  -0.000085  -0.034302   0.388420   0.003313   0.000000
     6  C   -0.049634   0.003638   0.003723  -0.048194  -0.000111   0.000000
     7  H    0.487659  -0.003560   0.000001  -0.000044  -0.000048   0.000000
     8  H   -0.003560   0.473338  -0.000048   0.000001  -0.004493  -0.000108
     9  H    0.000001  -0.000048   0.473132  -0.003588  -0.004491  -0.000108
    10  H   -0.000044   0.000001  -0.003588   0.483398  -0.000047   0.000000
    11  C   -0.000048  -0.004493  -0.004491  -0.000047   4.845249   0.799039
    12  N    0.000000  -0.000108  -0.000108   0.000000   0.799039   6.764175
    13  N   -0.006978  -0.000014  -0.000014  -0.004777   0.000000   0.000000
    14  C    0.001151   0.000001   0.000001   0.000044   0.000000   0.000000
    15  H    0.001350   0.000001   0.000000   0.000015   0.000000   0.000000
    16  H    0.000057   0.000000   0.000000  -0.000004   0.000000   0.000000
    17  H    0.005524   0.000000   0.000000  -0.000003   0.000000   0.000000
    18  C    0.000092   0.000001   0.000001   0.000335   0.000000   0.000000
    19  H   -0.000006   0.000000  -0.000001   0.007841   0.000000   0.000000
    20  H   -0.000005   0.000000   0.000000  -0.000074   0.000000   0.000000
    21  H    0.000038   0.000000   0.000000   0.000428   0.000000   0.000000
             13         14         15         16         17         18
     1  C   -0.049948  -0.022299   0.004572   0.000585  -0.002522   0.002657
     2  C    0.003412   0.000410  -0.000271  -0.000004   0.000274  -0.000127
     3  C   -0.000218  -0.000003  -0.000011   0.000000  -0.000005  -0.000001
     4  C    0.003001  -0.000129  -0.000003   0.000001  -0.000003   0.000383
     5  C   -0.049898   0.003237   0.000421  -0.000079  -0.000014  -0.016377
     6  C    0.285852  -0.087457  -0.004084   0.004528  -0.005766  -0.088726
     7  H   -0.006978   0.001151   0.001350   0.000057   0.005524   0.000092
     8  H   -0.000014   0.000001   0.000001   0.000000   0.000000   0.000001
     9  H   -0.000014   0.000001   0.000000   0.000000   0.000000   0.000001
    10  H   -0.004777   0.000044   0.000015  -0.000004  -0.000003   0.000335
    11  C    0.000000   0.000000   0.000000   0.000000   0.000000   0.000000
    12  N    0.000000   0.000000   0.000000   0.000000   0.000000   0.000000
    13  N    7.051704   0.279533  -0.051615  -0.030458  -0.029129   0.279525
    14  C    0.279533   5.269212   0.336205   0.369507   0.369090  -0.092345
    15  H   -0.051615   0.336205   0.583787  -0.034754  -0.040139  -0.004040
    16  H   -0.030458   0.369507  -0.034754   0.498658  -0.021495  -0.003458
    17  H   -0.029129   0.369090  -0.040139  -0.021495   0.501036   0.004782
    18  C    0.279525  -0.092345  -0.004040  -0.003458   0.004782   5.267305
    19  H   -0.030514   0.004789  -0.000295   0.000056  -0.000113   0.368002
    20  H   -0.030882  -0.003270  -0.001247   0.004505   0.000057   0.367495
    21  H   -0.051087  -0.004620   0.013058  -0.001157  -0.000323   0.338033
             19         20         21
     1  C   -0.000083  -0.000102   0.001318
     2  C    0.000000   0.000001  -0.000029
     3  C    0.000003   0.000000  -0.000012
     4  C    0.000068  -0.000001  -0.000091
     5  C    0.000533   0.000306   0.003439
     6  C   -0.006752   0.004878  -0.004024
     7  H   -0.000006  -0.000005   0.000038
     8  H    0.000000   0.000000   0.000000
     9  H   -0.000001   0.000000   0.000000
    10  H    0.007841  -0.000074   0.000428
    11  C    0.000000   0.000000   0.000000
    12  N    0.000000   0.000000   0.000000
    13  N   -0.030514  -0.030882  -0.051087
    14  C    0.004789  -0.003270  -0.004620
    15  H   -0.000295  -0.001247   0.013058
    16  H    0.000056   0.004505  -0.001157
    17  H   -0.000113   0.000057  -0.000323
    18  C    0.368002   0.367495   0.338033
    19  H    0.497458  -0.021948  -0.036348
    20  H   -0.021948   0.503211  -0.035886
    21  H   -0.036348  -0.035886   0.579245
 Mulliken atomic charges:
              1
     1  C   -0.203502
     2  C   -0.171802
     3  C   -0.014677
     4  C   -0.170989
     5  C   -0.194416
     6  C    0.256415
     7  H    0.201120
     8  H    0.209046
     9  H    0.209376
    10  H    0.203749
    11  C    0.310866
    12  N   -0.478707
    13  N   -0.567494
    14  C   -0.423055
    15  H    0.197050
    16  H    0.213512
    17  H    0.218752
    18  C   -0.423537
    19  H    0.217312
    20  H    0.212962
    21  H    0.198020
 Sum of Mulliken atomic charges =   0.00000
 Mulliken charges with hydrogens summed into heavy atoms:
              1
     1  C   -0.002382
     2  C    0.037245
     3  C   -0.014677
     4  C    0.038387
     5  C    0.009334
     6  C    0.256415
    11  C    0.310866
    12  N   -0.478707
    13  N   -0.567494
    14  C    0.206258
    18  C    0.204756
 Sum of Mulliken charges with hydrogens summed into heavy atoms =   0.00000
 Electronic spatial extent (au):  <R**2>=           2150.2149
 Charge=              0.0000 electrons
 Dipole moment (field-independent basis, Debye):
    X=             -5.5492    Y=             -0.0457    Z=              0.8501  Tot=              5.6141
 Quadrupole moment (field-independent basis, Debye-Ang):
   XX=            -82.0923   YY=            -56.0612   ZZ=            -69.5903
   XY=              0.6728   XZ=             -4.2305   YZ=             -0.0615
 Traceless Quadrupole moment (field-independent basis, Debye-Ang):
   XX=            -12.8444   YY=             13.1867   ZZ=             -0.3423
   XY=              0.6728   XZ=             -4.2305   YZ=             -0.0615
 Octapole moment (field-independent basis, Debye-Ang**2):
  XXX=           -161.8465  YYY=              0.6923  ZZZ=              3.4932  XYY=             -4.1071
  XXY=              0.3770  XXZ=              1.7213  XZZ=             -0.9454  YZZ=             -0.2970
  YYZ=             -1.5595  XYZ=             -1.5767
 Hexadecapole moment (field-independent basis, Debye-Ang**3):
 XXXX=          -2910.1829 YYYY=           -418.0055 ZZZZ=           -102.9069 XXXY=              9.3953
 XXXZ=            -57.6786 YYYX=             -0.4836 YYYZ=             -2.1980 ZZZX=             -3.2197
 ZZZY=              0.8213 XXYY=           -430.3290 XXZZ=           -420.5736 YYZZ=            -99.3908
 XXYZ=              2.7127 YYXZ=              3.1121 ZZXY=              0.6242
 N-N= 5.467913240219D+02 E-N=-2.150027568398D+03  KE= 4.522424760359D+02
 1|1|UNPC-DESKTOP-K2VF0AK|SP|RTD-B3LYP-FC|3-21G|C9H10N2|MELIH|16-Jan-20
 25|0||# td b3lyp/3-21g geom=connectivity||Title Card Required||0,1|C,0
 ,-2.33356183,-0.70394063,-0.16414458|C,0,-0.93927091,-0.82029243,-0.08
 453879|C,0,-0.1647743,0.28313149,0.29825698|C,0,-0.78456876,1.50290662
 ,0.60144901|C,0,-2.17885969,1.61925834,0.52184354|C,0,-2.95335625,0.51
 583462,0.13904706|H,0,-2.92490703,-1.54642875,-0.45641947|H,0,-0.46604
 42,-1.75161822,-0.31603128|H,0,-0.1932235,2.34539492,0.89372327|H,0,-2
 .65208669,2.55058309,0.75333955|C,0,1.36741381,0.15527343,0.38573215|N
 ,0,2.5081976,0.06007876,0.45086183|N,0,-4.41589924,0.63788168,0.055545
 49|C,0,-5.02331134,-0.69949887,0.11354374|H,0,-4.75694309,-1.17252614,
 1.03560294|H,0,-6.08788345,-0.6106619,0.05276368|H,0,-4.66723737,-1.28
 877606,-0.70551898|C,0,-4.90508497,1.44744939,1.18079987|H,0,-4.462955
 07,2.42091688,1.13858347|H,0,-5.96965708,1.53628636,1.12001982|H,0,-4.
 63871671,0.97442211,2.10285908||Version=IA32W-G09RevA.02|State=1-A|HF=
 -455.9210307|RMSD=5.785e-009|PG=C01 [X(C9H10N2)]||@


 THE BEST WAY TO CONVINCE A FOOL THAT HE IS WRONG 
 IS TO LET HIM HAVE HIS OWN WAY.

                                         JOSH BILLINGS
 Job cpu time:  0 days  0 hours  2 minutes 42.0 seconds.
 File lengths (MBytes):  RWF=     33 Int=      0 D2E=      0 Chk=      3 Scr=      1
 Normal termination of Gaussian 09 at Thu Jan 16 01:38:44 2025.
