 Entering Link 1 = C:\G09W\l1.exe PID=     21580.
  
 Copyright (c) 1988,1990,1992,1993,1995,1998,2003,2009, Gaussian, Inc.
                  All Rights Reserved.
  
 This is part of the Gaussian(R) 09 program.  It is based on
 the Gaussian(R) 03 system (copyright 2003, Gaussian, Inc.),
 the Gaussian(R) 98 system (copyright 1998, Gaussian, Inc.),
 the Gaussian(R) 94 system (copyright 1995, Gaussian, Inc.),
 the Gaussian 92(TM) system (copyright 1992, Gaussian, Inc.),
 the Gaussian 90(TM) system (copyright 1990, Gaussian, Inc.),
 the Gaussian 88(TM) system (copyright 1988, Gaussian, Inc.),
 the Gaussian 86(TM) system (copyright 1986, Carnegie Mellon
 University), and the Gaussian 82(TM) system (copyright 1983,
 Carnegie Mellon University). Gaussian is a federally registered
 trademark of Gaussian, Inc.
  
 This software contains proprietary and confidential information,
 including trade secrets, belonging to Gaussian, Inc.
  
 This software is provided under written license and may be
 used, copied, transmitted, or stored only in accord with that
 written license.
  
 The following legend is applicable only to US Government
 contracts under FAR:
  
                    RESTRICTED RIGHTS LEGEND
  
 Use, reproduction and disclosure by the US Government is
 subject to restrictions as set forth in subparagraphs (a)
 and (c) of the Commercial Computer Software - Restricted
 Rights clause in FAR 52.227-19.
  
 Gaussian, Inc.
 340 Quinnipiac St., Bldg. 40, Wallingford CT 06492
  
  
 ---------------------------------------------------------------
 Warning -- This program may not be used in any manner that
 competes with the business of Gaussian, Inc. or will provide
 assistance to any competitor of Gaussian, Inc.  The licensee
 of this program is prohibited from giving any competitor of
 Gaussian, Inc. access to this program.  By using this program,
 the user acknowledges that Gaussian, Inc. is engaged in the
 business of creating and licensing software in the field of
 computational chemistry and represents and warrants to the
 licensee that it is not a competitor of Gaussian, Inc. and that
 it will not use this program in any manner prohibited above.
 ---------------------------------------------------------------
  

 Cite this work as:
 Gaussian 09, Revision A.02,
 M. J. Frisch, G. W. Trucks, H. B. Schlegel, G. E. Scuseria, 
 M. A. Robb, J. R. Cheeseman, G. Scalmani, V. Barone, B. Mennucci, 
 G. A. Petersson, H. Nakatsuji, M. Caricato, X. Li, H. P. Hratchian, 
 A. F. Izmaylov, J. Bloino, G. Zheng, J. L. Sonnenberg, M. Hada, 
 M. Ehara, K. Toyota, R. Fukuda, J. Hasegawa, M. Ishida, T. Nakajima, 
 Y. Honda, O. Kitao, H. Nakai, T. Vreven, J. A. Montgomery, Jr., 
 J. E. Peralta, F. Ogliaro, M. Bearpark, J. J. Heyd, E. Brothers, 
 K. N. Kudin, V. N. Staroverov, R. Kobayashi, J. Normand, 
 K. Raghavachari, A. Rendell, J. C. Burant, S. S. Iyengar, J. Tomasi, 
 M. Cossi, N. Rega, J. M. Millam, M. Klene, J. E. Knox, J. B. Cross, 
 V. Bakken, C. Adamo, J. Jaramillo, R. Gomperts, R. E. Stratmann, 
 O. Yazyev, A. J. Austin, R. Cammi, C. Pomelli, J. W. Ochterski, 
 R. L. Martin, K. Morokuma, V. G. Zakrzewski, G. A. Voth, 
 P. Salvador, J. J. Dannenberg, S. Dapprich, A. D. Daniels, 
 O. Farkas, J. B. Foresman, J. V. Ortiz, J. Cioslowski, 
 and D. J. Fox, Gaussian, Inc., Wallingford CT, 2009.
 
 ******************************************
 Gaussian 09:  IA32W-G09RevA.02 11-Jun-2009
                15-Jan-2025 
 ******************************************
 %chk=C:\G09W\Final\energyacetonitrile.chk
 --------------------------------------------------------------------
 # cam-b3lyp/6-31g scrf=(cpcm,solvent=acetonitrile) geom=connectivity
 --------------------------------------------------------------------
 1/38=1,57=2/1;
 2/12=2,17=6,18=5,40=1/2;
 3/5=1,6=6,11=2,16=1,25=1,30=1,70=2101,72=2,74=-40/1,2,3;
 4//1;
 5/5=2,38=5,53=2/2;
 6/7=2,8=2,9=2,10=2,28=1/1;
 99/5=1,9=1/99;
 -------------------
 Title Card Required
 -------------------
 Symbolic Z-matrix:
 Charge =  0 Multiplicity = 1
 C                    -2.35124  -0.74827   0.08065 
 C                    -0.95695  -0.86462   0.16026 
 C                    -0.16477   0.28313   0.29826 
 C                    -0.76689   1.54724   0.35666 
 C                    -2.16118   1.66359   0.27705 
 C                    -2.95336   0.51583   0.13905 
 H                    -2.95608  -1.62461  -0.02472 
 H                    -0.49722  -1.8298    0.11567 
 H                    -0.16205   2.42357   0.46202 
 H                    -2.62092   2.62876   0.32164 
 C                     1.36741   0.15527   0.38573 
 N                     2.5082    0.06008   0.45086 
 N                    -4.4159    0.63788   0.05555 
 C                    -4.8532    1.81848   0.8144 
 H                    -4.39808   2.69532   0.40342 
 H                    -5.91778   1.90732   0.75362 
 H                    -4.56206   1.71214   1.83852 
 C                    -4.81588   0.78397  -1.35143 
 H                    -4.49757  -0.07537  -1.90379 
 H                    -5.88045   0.87281  -1.41221 
 H                    -4.36076   1.66082  -1.76241 
 
                          Input orientation:                          
 ---------------------------------------------------------------------
 Center     Atomic      Atomic             Coordinates (Angstroms)
 Number     Number       Type             X           Y           Z
 ---------------------------------------------------------------------
      1          6           0       -2.351237   -0.748272    0.080649
      2          6           0       -0.956946   -0.864623    0.160255
      3          6           0       -0.164774    0.283132    0.298257
      4          6           0       -0.766893    1.547238    0.356655
      5          6           0       -2.161184    1.663589    0.277050
      6          6           0       -2.953356    0.515835    0.139047
      7          1           0       -2.956078   -1.624608   -0.024720
      8          1           0       -0.497215   -1.829796    0.115668
      9          1           0       -0.162052    2.423574    0.462024
     10          1           0       -2.620916    2.628762    0.321640
     11          6           0        1.367414    0.155273    0.385732
     12          7           0        2.508198    0.060078    0.450861
     13          7           0       -4.415899    0.637882    0.055545
     14          6           0       -4.853204    1.818478    0.814398
     15          1           0       -4.398083    2.695324    0.403416
     16          1           0       -5.917776    1.907315    0.753618
     17          1           0       -4.562063    1.712141    1.838522
     18          6           0       -4.815878    0.783971   -1.351428
     19          1           0       -4.497567   -0.075374   -1.903790
     20          1           0       -5.880450    0.872808   -1.412208
     21          1           0       -4.360757    1.660817   -1.762410
 ---------------------------------------------------------------------
                    Distance matrix (angstroms):
                    1          2          3          4          5
     1  C    0.000000
     2  C    1.401400   0.000000
     3  C    2.427296   1.401400   0.000000
     4  C    2.802800   2.427296   1.401400   0.000000
     5  C    2.427296   2.802800   2.427296   1.401400   0.000000
     6  C    1.401400   2.427296   2.802800   2.427296   1.401400
     7  H    1.070000   2.146700   3.396345   3.872800   3.396345
     8  H    2.146700   1.070000   2.146700   3.396345   3.872800
     9  H    3.872800   3.396345   2.146700   1.070000   2.146700
    10  H    3.396345   3.872800   3.396345   2.146700   1.070000
    11  C    3.838989   2.548270   1.540000   2.548270   3.838989
    12  N    4.940100   3.598159   2.686600   3.598158   4.940100
    13  N    2.486942   3.772644   4.272800   3.772644   2.486942
    14  C    3.658747   4.775747   4.960349   4.120805   2.749492
    15  H    4.018968   4.957194   4.873462   3.808652   2.466609
    16  H    4.497246   5.713629   5.995194   5.178690   3.794536
    17  H    3.745864   4.738476   4.873462   4.077553   2.864397
    18  C    3.236212   4.460314   4.960349   4.460314   3.236212
    19  H    2.999587   4.173631   4.873462   4.654075   3.638508
    20  H    4.160753   5.452724   5.995194   5.452724   4.160753
    21  H    3.638508   4.654075   4.873462   4.173631   2.999587
                    6          7          8          9         10
     6  C    0.000000
     7  H    2.146700   0.000000
     8  H    3.396345   2.471400   0.000000
     9  H    3.396345   4.942800   4.280590   0.000000
    10  H    2.146700   4.280590   4.942800   2.471400   0.000000
    11  C    4.342800   4.693509   2.736837   2.736837   4.693509
    12  N    5.489400   5.737826   3.566018   3.566016   5.737825
    13  N    1.470000   2.693766   4.631321   4.631321   2.693767
    14  C    2.400500   4.019707   5.724750   4.743123   2.425383
    15  H    2.628174   4.574329   5.981328   4.245143   1.780293
    16  H    3.331921   4.674606   6.614791   5.786182   3.402408
    17  H    2.628174   4.145449   5.660082   4.664866   2.628531
    18  C    2.400500   3.319678   5.256900   5.256900   3.319679
    19  H    2.628174   2.882224   4.812382   5.535206   3.973250
    20  H    3.331921   4.088295   6.214313   6.214313   4.088297
    21  H    2.628174   3.973248   5.535207   4.812382   2.882227
                   11         12         13         14         15
    11  C    0.000000
    12  N    1.146600   0.000000
    13  N    5.812800   6.959400   0.000000
    14  C    6.453378   7.577227   1.470000   0.000000
    15  H    6.300248   7.392123   2.086720   1.070000   0.000000
    16  H    7.501932   8.631395   2.086720   1.070000   1.747303
    17  H    6.300249   7.392124   2.086720   1.070000   1.747303
    18  C    6.453377   7.577226   1.470000   2.400500   2.628174
    19  H    6.300247   7.392122   2.086720   3.331921   3.606919
    20  H    7.501931   8.631394   2.086720   2.628174   2.969085
    21  H    6.300247   7.392122   2.086720   2.628174   2.400500
                   16         17         18         19         20
    16  H    0.000000
    17  H    1.747303   0.000000
    18  C    2.628174   3.331921   0.000000
    19  H    3.606919   4.147803   1.070000   0.000000
    20  H    2.400500   3.606919   1.070000   1.747303   0.000000
    21  H    2.969085   3.606919   1.070000   1.747303   1.747303
                   21
    21  H    0.000000
 Stoichiometry    C9H10N2
 Framework group  C1[X(C9H10N2)]
 Deg. of freedom    57
 Full point group                 C1      NOp   1
 Largest Abelian subgroup         C1      NOp   1
 Largest concise Abelian subgroup C1      NOp   1
                         Standard orientation:                         
 ---------------------------------------------------------------------
 Center     Atomic      Atomic             Coordinates (Angstroms)
 Number     Number       Type             X           Y           Z
 ---------------------------------------------------------------------
      1          6           0       -0.131413    1.316058   -0.424302
      2          6           0        1.263703    1.215701   -0.337699
      3          6           0        1.858836   -0.008676   -0.005071
      4          6           0        1.058852   -1.132696    0.240951
      5          6           0       -0.336264   -1.032339    0.154347
      6          6           0       -0.931397    0.192038   -0.178280
      7          1           0       -0.585811    2.250897   -0.678269
      8          1           0        1.874509    2.073915   -0.525543
      9          1           0        1.513249   -2.067535    0.494918
     10          1           0       -0.947070   -1.890554    0.342188
     11          6           0        3.391931   -0.118957    0.090101
     12          7           0        4.533390   -0.201068    0.160962
     13          7           0       -2.394806    0.297307   -0.269123
     14          6           0       -2.954302   -0.996910   -0.684896
     15          1           0       -2.694513   -1.745367    0.034285
     16          1           0       -4.019504   -0.920285   -0.751020
     17          1           0       -2.556140   -1.267126   -1.640589
     18          6           0       -2.941813    0.668539    1.043839
     19          1           0       -2.534561    1.610588    1.346476
     20          1           0       -4.007016    0.745163    0.977715
     21          1           0       -2.682024   -0.079919    1.763020
 ---------------------------------------------------------------------
 Rotational constants (GHZ):      3.4202353      0.5605821      0.5164084
 Standard basis: 6-31G (6D, 7F)
 There are   119 symmetry adapted basis functions of A   symmetry.
 Integral buffers will be    262144 words long.
 Raffenetti 2 integral format.
 Two-electron integral symmetry is turned on.
   119 basis functions,   282 primitive gaussians,   119 cartesian basis functions
    39 alpha electrons       39 beta electrons
       nuclear repulsion energy       545.8402255254 Hartrees.
 NAtoms=   21 NActive=   21 NUniq=   21 SFac= 7.50D-01 NAtFMM=   80 NAOKFM=F Big=F
 ------------------------------------------------------------------------------
 Polarizable Continuum Model (PCM)
 =================================
 Model                : C-PCM.
 Atomic radii         : UFF (Universal Force Field).
 Polarization charges : Total charges.
 Charge compensation  : None.
 Solution method      : Matrix inversion.
 Cavity type          : Scaled VdW (van der Waals Surface) (Alpha=1.100).
 Cavity algorithm     : GePol (No added spheres)
                        Default sphere list used, NSphG=   21.
                        Lebedev-Laikov grids with approx.  5.0 points / Ang**2.
                        Smoothing algorithm: Karplus/York (Gamma=1.0000).
                        Polarization charges: spherical gaussians, with
                                              point-specific exponents (IZeta= 3).
                        Self-potential: point-specific (ISelfS= 7).
                        Self-field    : sphere-specific E.n sum rule (ISelfD= 2).
 Solvent              : Acetonitrile, Eps=  35.688000 Eps(inf)=   1.806874
 ------------------------------------------------------------------------------
 One-electron integrals computed using PRISM.
 NBasis=   119 RedAO= T  NBF=   119
 NBsUse=   119 1.00D-06 NBFU=   119
 Harris functional with IExCor=20419 diagonalized for initial guess.
 ExpMin= 1.61D-01 ExpMax= 4.17D+03 ExpMxC= 6.27D+02 IAcc=1 IRadAn=         1 AccDes= 0.00D+00
 HarFok:  IExCor=20419 AccDes= 0.00D+00 IRadAn=         1 IDoV= 1
 ScaDFX=  1.000000  1.000000  1.000000  1.000000
 FoFCou: FMM=F IPFlag=           0 FMFlag=      100000 FMFlg1=           0
         NFxFlg=           0 DoJE=T BraDBF=F KetDBF=T FulRan=T
         Omega=  0.000000  0.000000  1.000000  0.000000  0.000000 ICntrl=     500 IOpCl=  0
         NMat0=    1 NMatS0=    1 NMatT0=    0 NMatD0=    1 NMtDS0=    0 NMtDT0=    0
         I1Cent=           4 NGrid=           0.
 Petite list used in FoFCou.
 Initial guess orbital symmetries:
       Occupied  (A) (A) (A) (A) (A) (A) (A) (A) (A) (A) (A) (A)
                 (A) (A) (A) (A) (A) (A) (A) (A) (A) (A) (A) (A)
                 (A) (A) (A) (A) (A) (A) (A) (A) (A) (A) (A) (A)
                 (A) (A) (A)
       Virtual   (A) (A) (A) (A) (A) (A) (A) (A) (A) (A) (A) (A)
                 (A) (A) (A) (A) (A) (A) (A) (A) (A) (A) (A) (A)
                 (A) (A) (A) (A) (A) (A) (A) (A) (A) (A) (A) (A)
                 (A) (A) (A) (A) (A) (A) (A) (A) (A) (A) (A) (A)
                 (A) (A) (A) (A) (A) (A) (A) (A) (A) (A) (A) (A)
                 (A) (A) (A) (A) (A) (A) (A) (A) (A) (A) (A) (A)
                 (A) (A) (A) (A) (A) (A) (A) (A)
 The electronic state of the initial guess is 1-A.
 Requested convergence on RMS density matrix=1.00D-08 within 128 cycles.
 Requested convergence on MAX density matrix=1.00D-06.
 Requested convergence on             energy=1.00D-06.
 No special actions if energy rises.
 FoFJK:  IHMeth= 1 ICntrl=     0 DoSepK=T KAlg= 1 I1Cent= 0 FoldK=F
 FoFJK:  IHMeth= 1 ICntrl=     0 DoSepK=T KAlg= 1 I1Cent= 0 FoldK=F
 FoFJK:  IHMeth= 1 ICntrl=     0 DoSepK=T KAlg= 1 I1Cent= 0 FoldK=F
 FoFJK:  IHMeth= 1 ICntrl=     0 DoSepK=T KAlg= 1 I1Cent= 0 FoldK=F
 FoFJK:  IHMeth= 1 ICntrl=     0 DoSepK=T KAlg= 1 I1Cent= 0 FoldK=F
 FoFJK:  IHMeth= 1 ICntrl=     0 DoSepK=T KAlg= 1 I1Cent= 0 FoldK=F
 FoFJK:  IHMeth= 1 ICntrl=     0 DoSepK=T KAlg= 1 I1Cent= 0 FoldK=F
 FoFJK:  IHMeth= 1 ICntrl=     0 DoSepK=T KAlg= 1 I1Cent= 0 FoldK=F
 FoFJK:  IHMeth= 1 ICntrl=     0 DoSepK=T KAlg= 1 I1Cent= 0 FoldK=F
 FoFJK:  IHMeth= 1 ICntrl=     0 DoSepK=T KAlg= 1 I1Cent= 0 FoldK=F
 FoFJK:  IHMeth= 1 ICntrl=     0 DoSepK=T KAlg= 1 I1Cent= 0 FoldK=F
 FoFJK:  IHMeth= 1 ICntrl=     0 DoSepK=T KAlg= 1 I1Cent= 0 FoldK=F
 FoFJK:  IHMeth= 1 ICntrl=     0 DoSepK=T KAlg= 1 I1Cent= 0 FoldK=F
 Error on total polarization charges =  0.00780
 SCF Done:  E(RCAM-B3LYP) =  -458.057477697     A.U. after   13 cycles
             Convg  =    0.8315D-08             -V/T =  2.0051

 **********************************************************************

            Population analysis using the SCF density.

 **********************************************************************

 Orbital symmetries:
       Occupied  (A) (A) (A) (A) (A) (A) (A) (A) (A) (A) (A) (A)
                 (A) (A) (A) (A) (A) (A) (A) (A) (A) (A) (A) (A)
                 (A) (A) (A) (A) (A) (A) (A) (A) (A) (A) (A) (A)
                 (A) (A) (A)
       Virtual   (A) (A) (A) (A) (A) (A) (A) (A) (A) (A) (A) (A)
                 (A) (A) (A) (A) (A) (A) (A) (A) (A) (A) (A) (A)
                 (A) (A) (A) (A) (A) (A) (A) (A) (A) (A) (A) (A)
                 (A) (A) (A) (A) (A) (A) (A) (A) (A) (A) (A) (A)
                 (A) (A) (A) (A) (A) (A) (A) (A) (A) (A) (A) (A)
                 (A) (A) (A) (A) (A) (A) (A) (A) (A) (A) (A) (A)
                 (A) (A) (A) (A) (A) (A) (A) (A)
 The electronic state is 1-A.
 Alpha  occ. eigenvalues --  -14.43000 -14.41257 -10.32311 -10.32075 -10.31073
 Alpha  occ. eigenvalues --  -10.28658 -10.28600 -10.27425 -10.27371 -10.26695
 Alpha  occ. eigenvalues --  -10.26462  -1.03012  -1.02788  -0.95609  -0.85292
 Alpha  occ. eigenvalues --   -0.85048  -0.79793  -0.74405  -0.70854  -0.67604
 Alpha  occ. eigenvalues --   -0.63520  -0.57262  -0.56262  -0.54011  -0.52830
 Alpha  occ. eigenvalues --   -0.51416  -0.50492  -0.49028  -0.47230  -0.46273
 Alpha  occ. eigenvalues --   -0.44414  -0.44071  -0.43559  -0.42561  -0.42093
 Alpha  occ. eigenvalues --   -0.41632  -0.32906  -0.32453  -0.27933
 Alpha virt. eigenvalues --    0.00624   0.02913   0.08572   0.12694   0.13359
 Alpha virt. eigenvalues --    0.15480   0.17950   0.19542   0.20072   0.21396
 Alpha virt. eigenvalues --    0.21856   0.22184   0.22434   0.23857   0.25455
 Alpha virt. eigenvalues --    0.26134   0.28950   0.30055   0.31995   0.35487
 Alpha virt. eigenvalues --    0.36780   0.38870   0.40714   0.44694   0.52988
 Alpha virt. eigenvalues --    0.55504   0.56802   0.59058   0.59804   0.60849
 Alpha virt. eigenvalues --    0.62189   0.62900   0.64325   0.65219   0.65869
 Alpha virt. eigenvalues --    0.66683   0.68650   0.69235   0.70117   0.71241
 Alpha virt. eigenvalues --    0.72118   0.74300   0.75966   0.77555   0.78338
 Alpha virt. eigenvalues --    0.83137   0.85830   0.87211   0.89456   0.90511
 Alpha virt. eigenvalues --    0.91486   0.93071   0.95706   0.96203   0.97213
 Alpha virt. eigenvalues --    0.98391   1.01474   1.01640   1.02898   1.03746
 Alpha virt. eigenvalues --    1.06065   1.08434   1.09076   1.10021   1.13386
 Alpha virt. eigenvalues --    1.16687   1.20128   1.21286   1.23244   1.25909
 Alpha virt. eigenvalues --    1.30799   1.32836   1.38912   1.49521   1.53383
 Alpha virt. eigenvalues --    1.54665   1.66515   1.76927   1.88357   2.02440
          Condensed to atoms (all electrons):
              1          2          3          4          5          6
     1  C    4.960617   0.509286  -0.052361  -0.035296  -0.083464   0.544297
     2  C    0.509286   4.916466   0.515334  -0.051245  -0.037104  -0.044008
     3  C   -0.052361   0.515334   4.956355   0.521041  -0.051115  -0.021971
     4  C   -0.035296  -0.051245   0.521041   4.926754   0.470187  -0.030382
     5  C   -0.083464  -0.037104  -0.051115   0.470187   5.109037   0.456565
     6  C    0.544297  -0.044008  -0.021971  -0.030382   0.456565   4.865774
     7  H    0.353947  -0.028633   0.003849   0.000197   0.005837  -0.030241
     8  H   -0.021721   0.361549  -0.037173   0.003470   0.000565   0.003471
     9  H    0.000609   0.003441  -0.035978   0.360660  -0.020825   0.002498
    10  H    0.002816   0.000748   0.003474  -0.022458   0.370044  -0.045796
    11  C    0.004486  -0.022624   0.188342  -0.021817   0.005232   0.000770
    12  N   -0.000011   0.000553  -0.043323   0.000517  -0.000011   0.000007
    13  N   -0.053615   0.004044   0.000119   0.006649  -0.090209   0.270321
    14  C    0.003609  -0.000137  -0.000050   0.000987  -0.003516  -0.066408
    15  H   -0.000653   0.000042  -0.000015  -0.000042   0.001907  -0.014229
    16  H   -0.000096   0.000001   0.000001  -0.000015   0.000276   0.006694
    17  H    0.000506  -0.000036  -0.000005  -0.000082  -0.000945  -0.000483
    18  C   -0.007711  -0.000082   0.000014  -0.000029  -0.000228  -0.067504
    19  H    0.003545  -0.000148  -0.000007   0.000040  -0.000749  -0.003055
    20  H    0.000179  -0.000001   0.000000   0.000006  -0.000287   0.006352
    21  H   -0.000380   0.000079  -0.000021  -0.000489   0.007662  -0.003205
              7          8          9         10         11         12
     1  C    0.353947  -0.021721   0.000609   0.002816   0.004486  -0.000011
     2  C   -0.028633   0.361549   0.003441   0.000748  -0.022624   0.000553
     3  C    0.003849  -0.037173  -0.035978   0.003474   0.188342  -0.043323
     4  C    0.000197   0.003470   0.360660  -0.022458  -0.021817   0.000517
     5  C    0.005837   0.000565  -0.020825   0.370044   0.005232  -0.000011
     6  C   -0.030241   0.003471   0.002498  -0.045796   0.000770   0.000007
     7  H    0.534027  -0.003496   0.000011  -0.000127  -0.000155   0.000000
     8  H   -0.003496   0.518057  -0.000145   0.000010  -0.004330   0.000140
     9  H    0.000011  -0.000145   0.516636  -0.002948  -0.004148   0.000148
    10  H   -0.000127   0.000010  -0.002948   0.529716  -0.000169   0.000000
    11  C   -0.000155  -0.004330  -0.004148  -0.000169   4.890091   0.966932
    12  N    0.000000   0.000140   0.000148   0.000000   0.966932   6.337321
    13  N    0.000959  -0.000091  -0.000101  -0.011185  -0.000001   0.000000
    14  C    0.000088   0.000002   0.000023  -0.000772   0.000000   0.000000
    15  H    0.000040   0.000000   0.000033   0.005335   0.000000   0.000000
    16  H   -0.000011   0.000000   0.000000   0.000035   0.000000   0.000000
    17  H   -0.000035   0.000000  -0.000005  -0.000291   0.000000   0.000000
    18  C    0.000256   0.000002   0.000001  -0.000046   0.000000   0.000000
    19  H    0.000184   0.000003   0.000000  -0.000032   0.000000   0.000000
    20  H   -0.000071   0.000000   0.000000  -0.000036   0.000000   0.000000
    21  H    0.000187   0.000000   0.000008   0.001113   0.000000   0.000000
             13         14         15         16         17         18
     1  C   -0.053615   0.003609  -0.000653  -0.000096   0.000506  -0.007711
     2  C    0.004044  -0.000137   0.000042   0.000001  -0.000036  -0.000082
     3  C    0.000119  -0.000050  -0.000015   0.000001  -0.000005   0.000014
     4  C    0.006649   0.000987  -0.000042  -0.000015  -0.000082  -0.000029
     5  C   -0.090209  -0.003516   0.001907   0.000276  -0.000945  -0.000228
     6  C    0.270321  -0.066408  -0.014229   0.006694  -0.000483  -0.067504
     7  H    0.000959   0.000088   0.000040  -0.000011  -0.000035   0.000256
     8  H   -0.000091   0.000002   0.000000   0.000000   0.000000   0.000002
     9  H   -0.000101   0.000023   0.000033   0.000000  -0.000005   0.000001
    10  H   -0.011185  -0.000772   0.005335   0.000035  -0.000291  -0.000046
    11  C   -0.000001   0.000000   0.000000   0.000000   0.000000   0.000000
    12  N    0.000000   0.000000   0.000000   0.000000   0.000000   0.000000
    13  N    7.118352   0.268374  -0.066773  -0.036920  -0.038757   0.276991
    14  C    0.268374   5.007203   0.370960   0.382640   0.386579  -0.070234
    15  H   -0.066773   0.370960   0.633750  -0.037073  -0.041801  -0.002854
    16  H   -0.036920   0.382640  -0.037073   0.549496  -0.022802  -0.003854
    17  H   -0.038757   0.386579  -0.041801  -0.022802   0.546656   0.005683
    18  C    0.276991  -0.070234  -0.002854  -0.003854   0.005683   5.008915
    19  H   -0.038412   0.005871  -0.000405   0.000129  -0.000234   0.383150
    20  H   -0.037105  -0.003263  -0.001750   0.004072   0.000122   0.381913
    21  H   -0.073221  -0.004194   0.014750  -0.001609  -0.000389   0.373176
             19         20         21
     1  C    0.003545   0.000179  -0.000380
     2  C   -0.000148  -0.000001   0.000079
     3  C   -0.000007   0.000000  -0.000021
     4  C    0.000040   0.000006  -0.000489
     5  C   -0.000749  -0.000287   0.007662
     6  C   -0.003055   0.006352  -0.003205
     7  H    0.000184  -0.000071   0.000187
     8  H    0.000003   0.000000   0.000000
     9  H    0.000000   0.000000   0.000008
    10  H   -0.000032  -0.000036   0.001113
    11  C    0.000000   0.000000   0.000000
    12  N    0.000000   0.000000   0.000000
    13  N   -0.038412  -0.037105  -0.073221
    14  C    0.005871  -0.003263  -0.004194
    15  H   -0.000405  -0.001750   0.014750
    16  H    0.000129   0.004072  -0.001609
    17  H   -0.000234   0.000122  -0.000389
    18  C    0.383150   0.381913   0.373176
    19  H    0.548065  -0.022720  -0.038043
    20  H   -0.022720   0.549141  -0.039448
    21  H   -0.038043  -0.039448   0.628178
 Mulliken atomic charges:
              1
     1  C   -0.128590
     2  C   -0.127524
     3  C    0.053490
     4  C   -0.128653
     5  C   -0.138858
     6  C    0.170533
     7  H    0.163186
     8  H    0.179687
     9  H    0.180083
    10  H    0.170569
    11  C   -0.002610
    12  N   -0.262272
    13  N   -0.499419
    14  C   -0.277760
    15  H    0.138778
    16  H    0.159037
    17  H    0.166318
    18  C   -0.277559
    19  H    0.162819
    20  H    0.162897
    21  H    0.135848
 Sum of Mulliken atomic charges =   0.00000
 Mulliken charges with hydrogens summed into heavy atoms:
              1
     1  C    0.034596
     2  C    0.052163
     3  C    0.053490
     4  C    0.051430
     5  C    0.031711
     6  C    0.170533
    11  C   -0.002610
    12  N   -0.262272
    13  N   -0.499419
    14  C    0.186372
    18  C    0.184006
 Sum of Mulliken charges with hydrogens summed into heavy atoms =   0.00000
 Electronic spatial extent (au):  <R**2>=           2154.5830
 Charge=              0.0000 electrons
 Dipole moment (field-independent basis, Debye):
    X=             -5.9596    Y=             -0.6495    Z=              0.7529  Tot=              6.0420
 Quadrupole moment (field-independent basis, Debye-Ang):
   XX=            -89.4958   YY=            -57.7711   ZZ=            -66.3521
   XY=              4.9026   XZ=             -4.1275   YZ=             -0.1121
 Traceless Quadrupole moment (field-independent basis, Debye-Ang):
   XX=            -18.2895   YY=             13.4352   ZZ=              4.8542
   XY=              4.9026   XZ=             -4.1275   YZ=             -0.1121
 Octapole moment (field-independent basis, Debye-Ang**2):
  XXX=           -194.8252  YYY=              1.8402  ZZZ=              0.4645  XYY=              0.6032
  XXY=              1.7066  XXZ=              0.7622  XZZ=             -4.9850  YZZ=             -0.8080
  YYZ=              0.2955  XYZ=             -6.8456
 Hexadecapole moment (field-independent basis, Debye-Ang**3):
 XXXX=          -3138.0451 YYYY=           -355.1636 ZZZZ=           -175.9068 XXXY=             66.1467
 XXXZ=            -55.0103 YYYX=              2.1903 YYYZ=            -10.3380 ZZZX=             -0.1897
 ZZZY=              4.3392 XXYY=           -444.0883 XXZZ=           -423.5095 YYZZ=            -93.6896
 XXYZ=             13.0793 YYXZ=             -2.8492 ZZXY=              2.1318
 N-N= 5.458402255254D+02 E-N=-2.154796377529D+03  KE= 4.557515995135D+02
 1|1|UNPC-DESKTOP-K2VF0AK|SP|RCAM-B3LYP|6-31G|C9H10N2|MELIH|15-Jan-2025
 |0||# cam-b3lyp/6-31g scrf=(cpcm,solvent=acetonitrile) geom=connectivi
 ty||Title Card Required||0,1|C,0,-2.35123729,-0.74827155,0.08064918|C,
 0,-0.95694636,-0.86462315,0.16025501|C,0,-0.1647743,0.28313154,0.29825
 699|C,0,-0.76689329,1.54723767,0.35665527|C,0,-2.16118423,1.66358926,0
 .27704977|C,0,-2.95335625,0.51583462,0.13904706|H,0,-2.95607812,-1.624
 60758,-0.02472028|H,0,-0.49721524,-1.82979635,0.11566804|H,0,-0.162052
 41,2.42357375,0.46202409|H,0,-2.62091558,2.62876217,0.32164041|C,0,1.3
 6741377,0.15527292,0.38573206|N,0,2.50819756,0.06007789,0.45086135|N,0
 ,-4.41589924,0.63788168,0.05554549|C,0,-4.85320402,1.81847802,0.814397
 79|H,0,-4.39808298,2.69532395,0.40341598|H,0,-5.91777613,1.907315,0.75
 361774|H,0,-4.56206324,1.71214075,1.83852153|C,0,-4.8158777,0.78397121
 ,-1.35142824|H,0,-4.49756742,-0.07537443,-1.90379012|H,0,-5.88044981,0
 .87280819,-1.41220829|H,0,-4.36075665,1.66081714,-1.76241005||Version=
 IA32W-G09RevA.02|State=1-A|HF=-458.0574777|RMSD=8.315e-009|Dipole=-2.2
 249955,0.7279369,-0.4124667|Quadrupole=-14.6349622,10.2392723,4.395689
 9,-0.4478587,0.3016082,1.4473508|PG=C01 [X(C9H10N2)]||@


 CHINESE FORTUNE COOKIE OF JAN 1 1967 SAY....
 ALL THINGS ARE DIFFICULT BEFORE THEY ARE EASY.
 WE LEARN SO LITTLE AND FORGET SO MUCH.
 YOU WILL OVERCOME OBSTACLES TO ACHIEVE SUCCESS.
 AH SO.
 Job cpu time:  0 days  0 hours  1 minutes  4.0 seconds.
 File lengths (MBytes):  RWF=     39 Int=      0 D2E=      0 Chk=      2 Scr=      1
 Normal termination of Gaussian 09 at Wed Jan 15 17:53:41 2025.
