 Entering Link 1 = C:\G09W\l1.exe PID=      5988.
  
 Copyright (c) 1988,1990,1992,1993,1995,1998,2003,2009, Gaussian, Inc.
                  All Rights Reserved.
  
 This is part of the Gaussian(R) 09 program.  It is based on
 the Gaussian(R) 03 system (copyright 2003, Gaussian, Inc.),
 the Gaussian(R) 98 system (copyright 1998, Gaussian, Inc.),
 the Gaussian(R) 94 system (copyright 1995, Gaussian, Inc.),
 the Gaussian 92(TM) system (copyright 1992, Gaussian, Inc.),
 the Gaussian 90(TM) system (copyright 1990, Gaussian, Inc.),
 the Gaussian 88(TM) system (copyright 1988, Gaussian, Inc.),
 the Gaussian 86(TM) system (copyright 1986, Carnegie Mellon
 University), and the Gaussian 82(TM) system (copyright 1983,
 Carnegie Mellon University). Gaussian is a federally registered
 trademark of Gaussian, Inc.
  
 This software contains proprietary and confidential information,
 including trade secrets, belonging to Gaussian, Inc.
  
 This software is provided under written license and may be
 used, copied, transmitted, or stored only in accord with that
 written license.
  
 The following legend is applicable only to US Government
 contracts under FAR:
  
                    RESTRICTED RIGHTS LEGEND
  
 Use, reproduction and disclosure by the US Government is
 subject to restrictions as set forth in subparagraphs (a)
 and (c) of the Commercial Computer Software - Restricted
 Rights clause in FAR 52.227-19.
  
 Gaussian, Inc.
 340 Quinnipiac St., Bldg. 40, Wallingford CT 06492
  
  
 ---------------------------------------------------------------
 Warning -- This program may not be used in any manner that
 competes with the business of Gaussian, Inc. or will provide
 assistance to any competitor of Gaussian, Inc.  The licensee
 of this program is prohibited from giving any competitor of
 Gaussian, Inc. access to this program.  By using this program,
 the user acknowledges that Gaussian, Inc. is engaged in the
 business of creating and licensing software in the field of
 computational chemistry and represents and warrants to the
 licensee that it is not a competitor of Gaussian, Inc. and that
 it will not use this program in any manner prohibited above.
 ---------------------------------------------------------------
  

 Cite this work as:
 Gaussian 09, Revision A.02,
 M. J. Frisch, G. W. Trucks, H. B. Schlegel, G. E. Scuseria, 
 M. A. Robb, J. R. Cheeseman, G. Scalmani, V. Barone, B. Mennucci, 
 G. A. Petersson, H. Nakatsuji, M. Caricato, X. Li, H. P. Hratchian, 
 A. F. Izmaylov, J. Bloino, G. Zheng, J. L. Sonnenberg, M. Hada, 
 M. Ehara, K. Toyota, R. Fukuda, J. Hasegawa, M. Ishida, T. Nakajima, 
 Y. Honda, O. Kitao, H. Nakai, T. Vreven, J. A. Montgomery, Jr., 
 J. E. Peralta, F. Ogliaro, M. Bearpark, J. J. Heyd, E. Brothers, 
 K. N. Kudin, V. N. Staroverov, R. Kobayashi, J. Normand, 
 K. Raghavachari, A. Rendell, J. C. Burant, S. S. Iyengar, J. Tomasi, 
 M. Cossi, N. Rega, J. M. Millam, M. Klene, J. E. Knox, J. B. Cross, 
 V. Bakken, C. Adamo, J. Jaramillo, R. Gomperts, R. E. Stratmann, 
 O. Yazyev, A. J. Austin, R. Cammi, C. Pomelli, J. W. Ochterski, 
 R. L. Martin, K. Morokuma, V. G. Zakrzewski, G. A. Voth, 
 P. Salvador, J. J. Dannenberg, S. Dapprich, A. D. Daniels, 
 O. Farkas, J. B. Foresman, J. V. Ortiz, J. Cioslowski, 
 and D. J. Fox, Gaussian, Inc., Wallingford CT, 2009.
 
 ******************************************
 Gaussian 09:  IA32W-G09RevA.02 11-Jun-2009
                12-Jan-2025 
 ******************************************
 %chk=C:\G09W\Final\energyzindo10.chk
 --------------------------------------
 # zindo=(nstates=10) geom=connectivity
 --------------------------------------
 1/38=1,57=2/1;
 2/12=2,17=6,18=5,40=1/2;
 3/5=2,16=1,25=1,41=400000/1,2,8,3;
 4/5=3,35=1/1;
 5/5=2,35=1,38=5/2;
 8/6=1,108=10/1;
 9/41=10,42=1,49=10/14;
 6/7=2,8=2,9=2,10=2/1;
 99/5=1,9=1/99;
 -------------------
 Title Card Required
 -------------------
 Symbolic Z-matrix:
 Charge =  0 Multiplicity = 1
 C                     0.18651  -1.20987  0. 
 C                    -1.19723  -1.20436   0. 
 C                    -1.91469   0.00004   0.00003 
 C                    -1.19724   1.20441   0.00003 
 C                     0.18653   1.2099    0.00001 
 C                     0.9172    0.00002  -0.00002 
 H                     0.70315  -2.15908   0.00003 
 H                    -1.73598  -2.14473   0.00003 
 H                    -1.73592   2.14481   0.00006 
 H                     0.70315   2.15912   0.00005 
 C                    -3.34173  0.         0.00003 
 N                    -4.51007  -0.00004  -0.00004 
 N                     2.29635  -0.00001  -0.00014 
 C                     3.02767   1.25921   0.00002 
 H                     2.80028   1.86148   0.88818 
 H                     4.09705   1.05168  -0.00034 
 H                     2.79979   1.8619   -0.88772 
 C                     3.0276   -1.25927   0.00005 
 H                     2.79964  -1.86198  -0.88766 
 H                     4.09698  -1.05179  -0.00037 
 H                     2.80019  -1.86149   0.88824 
 
                          Input orientation:                          
 ---------------------------------------------------------------------
 Center     Atomic      Atomic             Coordinates (Angstroms)
 Number     Number       Type             X           Y           Z
 ---------------------------------------------------------------------
      1          6           0        0.186509   -1.209873   -0.000001
      2          6           0       -1.197235   -1.204363    0.000002
      3          6           0       -1.914692    0.000040    0.000027
      4          6           0       -1.197238    1.204408    0.000027
      5          6           0        0.186531    1.209897    0.000009
      6          6           0        0.917201    0.000024   -0.000025
      7          1           0        0.703150   -2.159082    0.000026
      8          1           0       -1.735984   -2.144728    0.000027
      9          1           0       -1.735920    2.144810    0.000059
     10          1           0        0.703153    2.159119    0.000046
     11          6           0       -3.341730   -0.000001    0.000025
     12          7           0       -4.510070   -0.000042   -0.000043
     13          7           0        2.296354   -0.000007   -0.000137
     14          6           0        3.027670    1.259211    0.000018
     15          1           0        2.800276    1.861475    0.888180
     16          1           0        4.097049    1.051682   -0.000344
     17          1           0        2.799790    1.861900   -0.887725
     18          6           0        3.027599   -1.259272    0.000048
     19          1           0        2.799637   -1.861979   -0.887661
     20          1           0        4.096984   -1.051793   -0.000372
     21          1           0        2.800191   -1.861488    0.888243
 ---------------------------------------------------------------------
                    Distance matrix (angstroms):
                    1          2          3          4          5
     1  C    0.000000
     2  C    1.383754   0.000000
     3  C    2.424651   1.401902   0.000000
     4  C    2.782715   2.408770   1.401871   0.000000
     5  C    2.419770   2.782707   2.424643   1.383780   0.000000
     6  C    1.413422   2.433390   2.831893   2.433391   1.413391
     7  H    1.080702   2.126723   3.393362   3.863229   3.408360
     8  H    2.137740   1.083761   2.152200   3.392191   3.866468
     9  H    3.866475   3.392217   2.152208   1.083760   2.137727
    10  H    3.408376   3.863221   3.393337   2.126725   1.080704
    11  C    3.729914   2.459542   1.427038   2.459562   3.729944
    12  N    4.849901   3.524949   2.595378   3.524990   4.849950
    13  N    2.432123   3.695353   4.211046   3.695375   2.432123
    14  C    3.764116   4.890707   5.100240   4.225263   2.841567
    15  H    4.129627   5.115497   5.146327   4.147369   2.836382
    16  H    4.517406   5.754926   6.103031   5.296489   3.913717
    17  H    4.129538   5.115294   5.145966   4.146882   2.835895
    18  C    2.841520   4.225190   5.100207   4.890702   3.764102
    19  H    2.835776   4.146732   5.145873   5.115245   4.129492
    20  H    3.913669   5.296416   6.102999   5.754931   4.517398
    21  H    2.836356   4.147312   5.146293   5.115475   4.129599
                    6          7          8          9         10
     6  C    0.000000
     7  H    2.169690   0.000000
     8  H    3.411649   2.439176   0.000000
     9  H    3.411621   4.946974   4.289538   0.000000
    10  H    2.169679   4.318201   4.946968   2.439115   0.000000
    11  C    4.258931   4.585050   2.679231   2.679336   4.585071
    12  N    5.427271   5.642616   3.506456   3.506608   5.642665
    13  N    1.379153   2.683264   4.567229   4.567217   2.683303
    14  C    2.457566   4.133778   5.854844   4.845211   2.492631
    15  H    2.792826   4.620783   6.116873   4.630994   2.296801
    16  H    3.349241   4.671997   6.651414   5.934514   3.570007
    17  H    2.792622   4.620855   6.116733   4.630428   2.296163
    18  C    2.457561   2.492533   4.845178   5.854817   4.133817
    19  H    2.792582   2.295979   4.630313   6.116672   4.620876
    20  H    3.349229   3.569902   5.934477   6.651394   4.672049
    21  H    2.792829   2.296753   4.630987   6.116829   4.620794
                   11         12         13         14         15
    11  C    0.000000
    12  N    1.168340   0.000000
    13  N    5.638084   6.806424   0.000000
    14  C    6.492678   7.642201   1.456177   0.000000
    15  H    6.479054   7.595745   2.123242   1.096932   0.000000
    16  H    7.512754   8.671137   2.085318   1.089331   1.768294
    17  H    6.478661   7.595318   2.123195   1.096928   1.775904
    18  C    6.492620   7.642128   1.456183   2.518484   3.252617
    19  H    6.478530   7.595163   2.123189   3.252968   4.125254
    20  H    7.512705   8.671076   2.085311   2.546405   3.310304
    21  H    6.478986   7.595654   2.123248   3.252607   3.722963
                   16         17         18         19         20
    16  H    0.000000
    17  H    1.768270   0.000000
    18  C    2.546415   3.252961   0.000000
    19  H    3.310593   3.723879   1.096927   0.000000
    20  H    2.103475   3.310547   1.089326   1.768273   0.000000
    21  H    3.310285   4.125249   1.096936   1.775904   1.768308
                   21
    21  H    0.000000
 Stoichiometry    C9H10N2
 Framework group  C1[X(C9H10N2)]
 Deg. of freedom    57
 Full point group                 C1      NOp   1
 Largest Abelian subgroup         C1      NOp   1
 Largest concise Abelian subgroup C1      NOp   1
                         Standard orientation:                         
 ---------------------------------------------------------------------
 Center     Atomic      Atomic             Coordinates (Angstroms)
 Number     Number       Type             X           Y           Z
 ---------------------------------------------------------------------
      1          6           0        0.186509   -1.209873   -0.000001
      2          6           0       -1.197235   -1.204363    0.000002
      3          6           0       -1.914692    0.000040    0.000027
      4          6           0       -1.197238    1.204408    0.000027
      5          6           0        0.186531    1.209897    0.000009
      6          6           0        0.917201    0.000024   -0.000025
      7          1           0        0.703150   -2.159082    0.000026
      8          1           0       -1.735984   -2.144728    0.000027
      9          1           0       -1.735920    2.144810    0.000059
     10          1           0        0.703153    2.159119    0.000046
     11          6           0       -3.341730    0.000000    0.000025
     12          7           0       -4.510070   -0.000042   -0.000043
     13          7           0        2.296354   -0.000007   -0.000137
     14          6           0        3.027670    1.259211    0.000018
     15          1           0        2.800276    1.861475    0.888180
     16          1           0        4.097049    1.051682   -0.000344
     17          1           0        2.799790    1.861900   -0.887725
     18          6           0        3.027599   -1.259272    0.000048
     19          1           0        2.799637   -1.861979   -0.887661
     20          1           0        4.096984   -1.051793   -0.000372
     21          1           0        2.800191   -1.861488    0.888243
 ---------------------------------------------------------------------
 Rotational constants (GHZ):      3.4603093      0.5771378      0.4977350
 Standard basis: VSTO-6G (5D, 7F)
 There are    54 symmetry adapted basis functions of A   symmetry.
 Integral buffers will be    262144 words long.
 Regular integral format.
 Two-electron integral symmetry is turned off.
    54 basis functions,   324 primitive gaussians,    54 cartesian basis functions
    28 alpha electrons       28 beta electrons
       nuclear repulsion energy       279.6167766805 Hartrees.
 Do NDO integrals.
 One-electron integrals computed using PRISM.
 Generate ZINDO/S integrals.
 NDO Nuclear repulsion=   204.702209384016 Hartrees.
 NBasis=    54 RedAO= F  NBF=    54
 NBsUse=    54 1.00D-04 NBFU=    54
 DipDrv:  will hold  3 matrices at once.
 Simple Huckel Guess.
 Initial guess orbital symmetries:
       Occupied  (A) (A) (A) (A) (A) (A) (A) (A) (A) (A) (A) (A)
                 (A) (A) (A) (A) (A) (A) (A) (A) (A) (A) (A) (A)
                 (A) (A) (A) (A)
       Virtual   (A) (A) (A) (A) (A) (A) (A) (A) (A) (A) (A) (A)
                 (A) (A) (A) (A) (A) (A) (A) (A) (A) (A) (A) (A)
                 (A) (A)
 The electronic state of the initial guess is 1-A.
 Requested convergence on RMS density matrix=1.00D-08 within 128 cycles.
 Requested convergence on MAX density matrix=1.00D-06.
 Requested convergence on             energy=1.00D-06.
 No special actions if energy rises.
 Overlap will be assumed to be unity.
 SCF Done:  E(RZINDO/S) =  -74.7930894239     A.U. after   15 cycles
             Convg  =    0.2634D-08             -V/T =  0.8549
 Range of M.O.s used for correlation:     1    54
 NBasis=    54 NAE=    28 NBE=    28 NFC=     0 NFV=     0
 NROrb=     54 NOA=    28 NOB=    28 NVA=    26 NVB=    26
 Orbital symmetries:
       Occupied  (A) (A) (A) (A) (A) (A) (A) (A) (A) (A) (A) (A)
                 (A) (A) (A) (A) (A) (A) (A) (A) (A) (A) (A) (A)
                 (A) (A) (A) (A)
       Virtual   (A) (A) (A) (A) (A) (A) (A) (A) (A) (A) (A) (A)
                 (A) (A) (A) (A) (A) (A) (A) (A) (A) (A) (A) (A)
                 (A) (A)
    40 initial guesses have been made.
 Convergence on wavefunction:    0.001000000000000
 Iteration     1 Dimension    40 NMult    40
 CISAX will form    40 AO SS matrices at one time.
 New state      1 was old state      2
 New state      2 was old state      1
 New state      3 was old state      4
 New state      4 was old state      7
 New state      5 was old state     13
 New state      6 was old state      3
 New state      7 was old state      6
 New state      8 was old state      9
 New state      9 was old state      5
 New state     10 was old state     17
 Iteration     2 Dimension    80 NMult    80
 New state      4 was old state      5
 New state      5 was old state      7
 New state      7 was old state      4
 New state      8 was old state      9
 New state      9 was old state      8
 No map to state     10
 Iteration     3 Dimension    90 NMult    90
 Iteration     4 Dimension   100 NMult   100
 Iteration     5 Dimension   107 NMult   107
 ***********************************************************************
 Excited states from <AA,BB:AA,BB> singles matrix:
 ***********************************************************************
 
 Ground to excited state transition electric dipole moments (Au):
       state          X           Y           Z        Dip. S.      Osc.
         1         0.0020      0.5420      0.0000      0.2938      0.0303
         2         2.2026     -0.0005     -0.0001      4.8515      0.5049
         3         0.0000      0.0000      0.0000      0.0000      0.0000
         4         0.0000      0.0000      0.0000      0.0000      0.0000
         5         0.1478      0.0001      0.0001      0.0219      0.0030
         6         0.0001     -1.9177      0.0000      3.6777      0.5045
         7         0.0000      0.0000     -0.1090      0.0119      0.0017
         8         2.0904      0.0000      0.0000      4.3699      0.6361
         9         0.0000      0.0000     -0.0539      0.0029      0.0004
        10         0.6037      0.0001      0.0000      0.3645      0.0576
 Ground to excited state transition velocity dipole moments (Au):
       state          X           Y           Z        Dip. S.      Osc.
         1        -0.0002     -0.0315      0.0000      0.0010      0.0043
         2        -0.2041      0.0000      0.0000      0.0416      0.1778
         3         0.0000      0.0000      0.0000      0.0000      0.0000
         4         0.0000      0.0000      0.0000      0.0000      0.0000
         5        -0.0017      0.0000      0.0000      0.0000      0.0000
         6         0.0000      0.1881      0.0000      0.0354      0.1146
         7         0.0000      0.0000     -0.0432      0.0019      0.0059
         8        -0.2813      0.0000      0.0000      0.0791      0.2416
         9         0.0000      0.0000      0.0409      0.0017      0.0049
        10        -0.0711      0.0000      0.0000      0.0051      0.0142
 Ground to excited state transition magnetic dipole moments (Au):
       state          X           Y           Z
         1         0.0000      0.0000      0.3215
         2         0.0000      0.0000     -0.0002
         3        -0.1590      0.0000      0.0001
         4        -0.0900      0.0000     -0.0001
         5         0.0000     -0.0002      0.0000
         6         0.0001      0.0000     -0.2950
         7         0.0000      0.0994      0.0000
         8         0.0000      0.0001     -0.0001
         9         0.0000     -0.1698      0.0000
        10         0.0000      0.0002      0.0000
 <0|del|b> * <b|rxdel|0> + <0|del|b> * <b|delr+rdel|0>
 Rotatory Strengths (R) in cgs (10**-40 erg-esu-cm/Gauss)
       state          XX          YY          ZZ    R(velocity)
         1        -0.0002     -0.0003      0.0000     -0.0002
 Total R(velocity) tensor for State=          1
                 1             2             3 
      1  -0.198460D-03  0.000000D+00  0.100046D+00
      2  -0.179731D-02 -0.267242D-03  0.252652D+02
      3  -0.214044D-04  0.000000D+00 -0.295152D-05
 R(velocity) tensor in inp. orien. for State=          1
                 1             2             3 
      1  -0.198460D-03  0.000000D+00  0.100046D+00
      2  -0.179731D-02 -0.267242D-03  0.252652D+02
      3  -0.214044D-04  0.000000D+00 -0.295152D-05
         2         0.0000      0.0030      0.0034      0.0021
 Total R(velocity) tensor for State=          2
                 1             2             3 
      1   0.519915D-05  0.267391D-01 -0.104794D-01
      2  -0.216932D-02  0.304691D-02 -0.374614D+02
      3   0.370127D-02  0.170445D+02  0.337907D-02
 R(velocity) tensor in inp. orien. for State=          2
                 1             2             3 
      1   0.519915D-05  0.267391D-01 -0.104794D-01
      2  -0.216932D-02  0.304691D-02 -0.374614D+02
      3   0.370127D-02  0.170445D+02  0.337907D-02
         3         0.0000     -0.0022     -0.0037     -0.0020
 Total R(velocity) tensor for State=          3
                 1             2             3 
      1   0.000000D+00  0.000000D+00 -0.103583D-05
      2   0.121860D-02 -0.224989D-02 -0.177863D-05
      3  -0.284400D-03  0.000000D+00 -0.368615D-02
 R(velocity) tensor in inp. orien. for State=          3
                 1             2             3 
      1   0.000000D+00  0.000000D+00 -0.103583D-05
      2   0.121860D-02 -0.224989D-02 -0.177863D-05
      3  -0.284400D-03  0.000000D+00 -0.368615D-02
         4         0.0000     -0.0001     -0.0007     -0.0002
 Total R(velocity) tensor for State=          4
                 1             2             3 
      1   0.000000D+00  0.000000D+00  0.000000D+00
      2  -0.790124D-05 -0.900974D-04  0.000000D+00
      3  -0.339964D-03  0.000000D+00 -0.657640D-03
 R(velocity) tensor in inp. orien. for State=          4
                 1             2             3 
      1   0.000000D+00  0.000000D+00  0.000000D+00
      2  -0.790124D-05 -0.900974D-04  0.000000D+00
      3  -0.339964D-03  0.000000D+00 -0.657640D-03
         5         0.0000      0.0000      0.0000      0.0000
 Total R(velocity) tensor for State=          5
                 1             2             3 
      1   0.731907D-05  0.270801D-01 -0.194380D-01
      2   0.659339D-02 -0.325663D-05 -0.647350D+00
      3  -0.740545D-03  0.105191D+00 -0.644821D-05
 R(velocity) tensor in inp. orien. for State=          5
                 1             2             3 
      1   0.731906D-05  0.270801D-01 -0.194380D-01
      2   0.659339D-02 -0.325662D-05 -0.647350D+00
      3  -0.740545D-03  0.105191D+00 -0.644821D-05
         6        -0.0009     -0.0001      0.0003     -0.0002
 Total R(velocity) tensor for State=          6
                 1             2             3 
      1  -0.880692D-03  0.000000D+00 -0.423751D-01
      2  -0.184625D-01 -0.108436D-03  0.829917D+01
      3  -0.670561D-03  0.000000D+00  0.269092D-03
 R(velocity) tensor in inp. orien. for State=          6
                 1             2             3 
      1  -0.880692D-03  0.000000D+00 -0.423751D-01
      2  -0.184625D-01 -0.108436D-03  0.829917D+01
      3  -0.670561D-03  0.000000D+00  0.269092D-03
         7         0.0012      0.0003     -0.0002      0.0004
 Total R(velocity) tensor for State=          7
                 1             2             3 
      1   0.120053D-02  0.412122D-01  0.105307D-05
      2   0.838336D-02  0.250174D-03 -0.405393D-05
      3  -0.102906D-03 -0.610305D+01 -0.242080D-03
 R(velocity) tensor in inp. orien. for State=          7
                 1             2             3 
      1   0.120053D-02  0.412122D-01  0.105307D-05
      2   0.838336D-02  0.250174D-03 -0.405393D-05
      3  -0.102905D-03 -0.610305D+01 -0.242080D-03
         8         0.0000     -0.0041      0.0042      0.0000
 Total R(velocity) tensor for State=          8
                 1             2             3 
      1   0.000000D+00  0.313782D-01 -0.232244D-01
      2   0.152512D-03 -0.405655D-02  0.201153D+02
      3  -0.506243D-05  0.673452D+01  0.415173D-02
 R(velocity) tensor in inp. orien. for State=          8
                 1             2             3 
      1   0.000000D+00  0.313782D-01 -0.232244D-01
      2   0.152512D-03 -0.405655D-02  0.201153D+02
      3  -0.506388D-05  0.673452D+01  0.415173D-02
         9        -0.0026     -0.0005      0.0002     -0.0010
 Total R(velocity) tensor for State=          9
                 1             2             3 
      1  -0.257867D-02 -0.210297D-01  0.207090D-05
      2  -0.483265D-02 -0.487286D-03  0.000000D+00
      3  -0.200670D-03 -0.241464D+01  0.191808D-03
 R(velocity) tensor in inp. orien. for State=          9
                 1             2             3 
      1  -0.257867D-02 -0.210297D-01  0.207090D-05
      2  -0.483265D-02 -0.487286D-03  0.000000D+00
      3  -0.200669D-03 -0.241464D+01  0.191808D-03
        10         0.0000      0.0008     -0.0004      0.0001
 Total R(velocity) tensor for State=         10
                 1             2             3 
      1  -0.508799D-05 -0.128180D-01 -0.207757D-01
      2  -0.167669D-01  0.800688D-03 -0.460903D+02
      3   0.781778D-03 -0.405807D+01 -0.382650D-03
 R(velocity) tensor in inp. orien. for State=         10
                 1             2             3 
      1  -0.508799D-05 -0.128180D-01 -0.207757D-01
      2  -0.167669D-01  0.800688D-03 -0.460903D+02
      3   0.781779D-03 -0.405807D+01 -0.382650D-03
 1/2[<0|r|b>*<b|rxdel|0> + (<0|rxdel|b>*<b|r|0>)*]
 Rotatory Strengths (R) in cgs (10**-40 erg-esu-cm/Gauss)
       state          XX          YY          ZZ     R(length)     R(au)
         1         0.0000      0.0000     -0.0002      0.0000      0.0000
         2         0.0108      0.0000      0.0000      0.0036      0.0000
         3        -0.0048      0.0000      0.0000     -0.0016      0.0000
         4        -0.0006      0.0000      0.0000     -0.0002      0.0000
         5        -0.0002      0.0000      0.0000     -0.0001      0.0000
         6         0.0000      0.0037     -0.0038      0.0000      0.0000
         7         0.0000      0.0005     -0.0003      0.0001      0.0000
         8         0.0002      0.0000      0.0000      0.0001      0.0000
         9         0.0000     -0.0004     -0.0004     -0.0003      0.0000
        10         0.0008      0.0000      0.0000      0.0003      0.0000
  1/2[<0|del|b>*<b|r|0> + (<0|r|b>*<b|del|0>)*] (Au)
       state          X           Y           Z        Dip. S.   Osc.(frdel)
         1         0.0000     -0.0170      0.0000      0.0170      0.0114
         2        -0.4495      0.0000      0.0000      0.4495      0.2996
         3         0.0000      0.0000      0.0000      0.0000      0.0000
         4         0.0000      0.0000      0.0000      0.0000      0.0000
         5        -0.0002      0.0000      0.0000      0.0002      0.0002
         6         0.0000     -0.3608      0.0000      0.3608      0.2405
         7         0.0000      0.0000      0.0047     -0.0047     -0.0031
         8        -0.5880      0.0000      0.0000      0.5880      0.3920
         9         0.0000      0.0000     -0.0022      0.0022      0.0015
        10        -0.0429      0.0000      0.0000      0.0429      0.0286
 Ground to excited state transition densities written to RWF  633

 Excitation energies and oscillator strengths:
 
 Excited State   1:      Singlet-A      4.2104 eV  294.47 nm  f=0.0303  <S**2>=0.000
      27 -> 29         0.34462
      28 -> 30         0.60541
 This state for optimization and/or second-order correction.
 Copying the excited state density for this state as the 1-particle RhoCI density.
 
 Excited State   2:      Singlet-A      4.2480 eV  291.87 nm  f=0.5049  <S**2>=0.000
      27 -> 30        -0.13765
      28 -> 29         0.66968
 
 Excited State   3:      Singlet-A      5.0123 eV  247.36 nm  f=0.0000  <S**2>=0.000
      24 -> 31        -0.25795
      25 -> 29         0.27572
      25 -> 32         0.24083
      25 -> 35        -0.12501
      26 -> 31        -0.28768
      28 -> 31         0.41465
 
 Excited State   4:      Singlet-A      5.4773 eV  226.36 nm  f=0.0000  <S**2>=0.000
      23 -> 32        -0.10723
      24 -> 31         0.13236
      25 -> 29         0.41541
      25 -> 32         0.33005
      25 -> 35        -0.16291
      26 -> 31         0.18309
      28 -> 31        -0.33594
 
 Excited State   5:      Singlet-A      5.5682 eV  222.66 nm  f=0.0030  <S**2>=0.000
      24 -> 29        -0.13648
      24 -> 32        -0.13038
      25 -> 31         0.33174
      26 -> 29        -0.28959
      26 -> 32        -0.11701
      28 -> 32         0.45788
 
 Excited State   6:      Singlet-A      5.5994 eV  221.42 nm  f=0.5045  <S**2>=0.000
      27 -> 29         0.59102
      28 -> 30        -0.34657
 
 Excited State   7:      Singlet-A      5.7269 eV  216.50 nm  f=0.0017  <S**2>=0.000
      26 -> 34        -0.10565
      28 -> 33         0.64568
      28 -> 34        -0.20223
      28 -> 36         0.13333
 
 Excited State   8:      Singlet-A      5.9416 eV  208.67 nm  f=0.6361  <S**2>=0.000
      26 -> 29         0.16778
      27 -> 30         0.64850
      28 -> 29         0.12488
 
 Excited State   9:      Singlet-A      6.2301 eV  199.01 nm  f=0.0004  <S**2>=0.000
      26 -> 33        -0.18241
      28 -> 33         0.21993
      28 -> 34         0.61197
      28 -> 36        -0.15725
 
 Excited State  10:      Singlet-A      6.4467 eV  192.32 nm  f=0.0576  <S**2>=0.000
      24 -> 29         0.16891
      24 -> 32         0.15113
      25 -> 31        -0.25187
      26 -> 32         0.11595
      28 -> 29         0.12193
      28 -> 32         0.36003
      28 -> 35         0.43380
 SavETr:  write IOETrn=   770 NScale= 10 NData=  16 NLR=1 LETran=     180.

 **********************************************************************

            Population analysis using the SCF density.

 **********************************************************************

 Orbital symmetries:
       Occupied  (A) (A) (A) (A) (A) (A) (A) (A) (A) (A) (A) (A)
                 (A) (A) (A) (A) (A) (A) (A) (A) (A) (A) (A) (A)
                 (A) (A) (A) (A)
       Virtual   (A) (A) (A) (A) (A) (A) (A) (A) (A) (A) (A) (A)
                 (A) (A) (A) (A) (A) (A) (A) (A) (A) (A) (A) (A)
                 (A) (A)
 The electronic state is 1-A.
 Alpha  occ. eigenvalues --   -1.71009  -1.57692  -1.37491  -1.28811  -1.22870
 Alpha  occ. eigenvalues --   -1.17343  -1.07842  -0.94187  -0.91144  -0.87982
 Alpha  occ. eigenvalues --   -0.75155  -0.73391  -0.69217  -0.64163  -0.61264
 Alpha  occ. eigenvalues --   -0.59675  -0.58507  -0.55606  -0.53340  -0.53180
 Alpha  occ. eigenvalues --   -0.51724  -0.47156  -0.47043  -0.46140  -0.42329
 Alpha  occ. eigenvalues --   -0.39093  -0.35261  -0.30037
 Alpha virt. eigenvalues --   -0.00496   0.01399   0.06384   0.07075   0.08370
 Alpha virt. eigenvalues --    0.10152   0.10898   0.12101   0.13166   0.14648
 Alpha virt. eigenvalues --    0.16554   0.19024   0.20019   0.23262   0.23740
 Alpha virt. eigenvalues --    0.23887   0.24547   0.25106   0.27694   0.31902
 Alpha virt. eigenvalues --    0.35370   0.39209   0.41490   0.44628   0.47584
 Alpha virt. eigenvalues --    0.53998
          Condensed to atoms (all electrons):
              1          2          3          4          5          6
     1  C    4.068889   0.000000   0.000000   0.000000   0.000000   0.000000
     2  C    0.000000   4.000219   0.000000   0.000000   0.000000   0.000000
     3  C    0.000000   0.000000   3.985512   0.000000   0.000000   0.000000
     4  C    0.000000   0.000000   0.000000   4.000214   0.000000   0.000000
     5  C    0.000000   0.000000   0.000000   0.000000   4.068896   0.000000
     6  C    0.000000   0.000000   0.000000   0.000000   0.000000   3.861816
     7  H    0.000000   0.000000   0.000000   0.000000   0.000000   0.000000
     8  H    0.000000   0.000000   0.000000   0.000000   0.000000   0.000000
     9  H    0.000000   0.000000   0.000000   0.000000   0.000000   0.000000
    10  H    0.000000   0.000000   0.000000   0.000000   0.000000   0.000000
    11  C    0.000000   0.000000   0.000000   0.000000   0.000000   0.000000
    12  N    0.000000   0.000000   0.000000   0.000000   0.000000   0.000000
    13  N    0.000000   0.000000   0.000000   0.000000   0.000000   0.000000
    14  C    0.000000   0.000000   0.000000   0.000000   0.000000   0.000000
    15  H    0.000000   0.000000   0.000000   0.000000   0.000000   0.000000
    16  H    0.000000   0.000000   0.000000   0.000000   0.000000   0.000000
    17  H    0.000000   0.000000   0.000000   0.000000   0.000000   0.000000
    18  C    0.000000   0.000000   0.000000   0.000000   0.000000   0.000000
    19  H    0.000000   0.000000   0.000000   0.000000   0.000000   0.000000
    20  H    0.000000   0.000000   0.000000   0.000000   0.000000   0.000000
    21  H    0.000000   0.000000   0.000000   0.000000   0.000000   0.000000
              7          8          9         10         11         12
     1  C    0.000000   0.000000   0.000000   0.000000   0.000000   0.000000
     2  C    0.000000   0.000000   0.000000   0.000000   0.000000   0.000000
     3  C    0.000000   0.000000   0.000000   0.000000   0.000000   0.000000
     4  C    0.000000   0.000000   0.000000   0.000000   0.000000   0.000000
     5  C    0.000000   0.000000   0.000000   0.000000   0.000000   0.000000
     6  C    0.000000   0.000000   0.000000   0.000000   0.000000   0.000000
     7  H    0.962362   0.000000   0.000000   0.000000   0.000000   0.000000
     8  H    0.000000   0.956261   0.000000   0.000000   0.000000   0.000000
     9  H    0.000000   0.000000   0.956261   0.000000   0.000000   0.000000
    10  H    0.000000   0.000000   0.000000   0.962366   0.000000   0.000000
    11  C    0.000000   0.000000   0.000000   0.000000   3.780087   0.000000
    12  N    0.000000   0.000000   0.000000   0.000000   0.000000   5.405848
    13  N    0.000000   0.000000   0.000000   0.000000   0.000000   0.000000
    14  C    0.000000   0.000000   0.000000   0.000000   0.000000   0.000000
    15  H    0.000000   0.000000   0.000000   0.000000   0.000000   0.000000
    16  H    0.000000   0.000000   0.000000   0.000000   0.000000   0.000000
    17  H    0.000000   0.000000   0.000000   0.000000   0.000000   0.000000
    18  C    0.000000   0.000000   0.000000   0.000000   0.000000   0.000000
    19  H    0.000000   0.000000   0.000000   0.000000   0.000000   0.000000
    20  H    0.000000   0.000000   0.000000   0.000000   0.000000   0.000000
    21  H    0.000000   0.000000   0.000000   0.000000   0.000000   0.000000
             13         14         15         16         17         18
     1  C    0.000000   0.000000   0.000000   0.000000   0.000000   0.000000
     2  C    0.000000   0.000000   0.000000   0.000000   0.000000   0.000000
     3  C    0.000000   0.000000   0.000000   0.000000   0.000000   0.000000
     4  C    0.000000   0.000000   0.000000   0.000000   0.000000   0.000000
     5  C    0.000000   0.000000   0.000000   0.000000   0.000000   0.000000
     6  C    0.000000   0.000000   0.000000   0.000000   0.000000   0.000000
     7  H    0.000000   0.000000   0.000000   0.000000   0.000000   0.000000
     8  H    0.000000   0.000000   0.000000   0.000000   0.000000   0.000000
     9  H    0.000000   0.000000   0.000000   0.000000   0.000000   0.000000
    10  H    0.000000   0.000000   0.000000   0.000000   0.000000   0.000000
    11  C    0.000000   0.000000   0.000000   0.000000   0.000000   0.000000
    12  N    0.000000   0.000000   0.000000   0.000000   0.000000   0.000000
    13  N    5.240693   0.000000   0.000000   0.000000   0.000000   0.000000
    14  C    0.000000   3.958717   0.000000   0.000000   0.000000   0.000000
    15  H    0.000000   0.000000   0.970424   0.000000   0.000000   0.000000
    16  H    0.000000   0.000000   0.000000   0.975722   0.000000   0.000000
    17  H    0.000000   0.000000   0.000000   0.000000   0.970425   0.000000
    18  C    0.000000   0.000000   0.000000   0.000000   0.000000   3.958718
    19  H    0.000000   0.000000   0.000000   0.000000   0.000000   0.000000
    20  H    0.000000   0.000000   0.000000   0.000000   0.000000   0.000000
    21  H    0.000000   0.000000   0.000000   0.000000   0.000000   0.000000
             19         20         21
     1  C    0.000000   0.000000   0.000000
     2  C    0.000000   0.000000   0.000000
     3  C    0.000000   0.000000   0.000000
     4  C    0.000000   0.000000   0.000000
     5  C    0.000000   0.000000   0.000000
     6  C    0.000000   0.000000   0.000000
     7  H    0.000000   0.000000   0.000000
     8  H    0.000000   0.000000   0.000000
     9  H    0.000000   0.000000   0.000000
    10  H    0.000000   0.000000   0.000000
    11  C    0.000000   0.000000   0.000000
    12  N    0.000000   0.000000   0.000000
    13  N    0.000000   0.000000   0.000000
    14  C    0.000000   0.000000   0.000000
    15  H    0.000000   0.000000   0.000000
    16  H    0.000000   0.000000   0.000000
    17  H    0.000000   0.000000   0.000000
    18  C    0.000000   0.000000   0.000000
    19  H    0.970425   0.000000   0.000000
    20  H    0.000000   0.975721   0.000000
    21  H    0.000000   0.000000   0.970423
 Mulliken atomic charges:
              1
     1  C   -0.068889
     2  C   -0.000219
     3  C    0.014488
     4  C   -0.000214
     5  C   -0.068896
     6  C    0.138184
     7  H    0.037638
     8  H    0.043739
     9  H    0.043739
    10  H    0.037634
    11  C    0.219913
    12  N   -0.405848
    13  N   -0.240693
    14  C    0.041283
    15  H    0.029576
    16  H    0.024278
    17  H    0.029575
    18  C    0.041282
    19  H    0.029575
    20  H    0.024279
    21  H    0.029577
 Sum of Mulliken atomic charges =   0.00000
 Mulliken charges with hydrogens summed into heavy atoms:
              1
     1  C   -0.031251
     2  C    0.043520
     3  C    0.014488
     4  C    0.043524
     5  C   -0.031262
     6  C    0.138184
    11  C    0.219913
    12  N   -0.405848
    13  N   -0.240693
    14  C    0.124712
    18  C    0.124713
 Sum of Mulliken charges with hydrogens summed into heavy atoms =   0.00000
 Charge=              0.0000 electrons
 Dipole moment (field-independent basis, Debye):
    X=              7.3628    Y=              0.0001    Z=              0.0009  Tot=              7.3628
 N-N= 2.047022093840D+02 E-N= 0.000000000000D+00  KE=-5.154175965164D+02
 1|1|UNPC-DESKTOP-K2VF0AK|SP|RZINDO|STO-3G|C9H10N2|MELIH|12-Jan-2025|0|
 |# zindo=(nstates=10) geom=connectivity||Title Card Required||0,1|C,0,
 0.1865086,-1.20987284,-0.00000146|C,0,-1.19723462,-1.20436259,0.000001
 51|C,0,-1.91469216,0.00003966,0.00002694|C,0,-1.19723785,1.20440751,0.
 00002719|C,0,0.18653087,1.20989711,0.00000878|C,0,0.91720118,0.0000235
 6,-0.00002459|H,0,0.70314973,-2.15908234,0.0000263|H,0,-1.73598398,-2.
 14472816,0.00002667|H,0,-1.73591977,2.14480988,0.00005907|H,0,0.703152
 96,2.15911882,0.00004646|C,0,-3.34173016,-0.0000008,0.00002517|N,0,-4.
 51007015,-0.00004184,-0.00004278|N,0,2.29635419,-0.00000669,-0.0001369
 6|C,0,3.0276696,1.2592113,0.00001832|H,0,2.80027563,1.86147512,0.88817
 975|H,0,4.09704903,1.05168171,-0.00034449|H,0,2.79978998,1.86190036,-0
 .88772461|C,0,3.02759884,-1.2592722,0.00004791|H,0,2.79963747,-1.86197
 868,-0.88766089|H,0,4.0969838,-1.05179349,-0.00037171|H,0,2.80019112,-
 1.86148784,0.88824298||Version=IA32W-G09RevA.02|State=1-A|HF=-74.79308
 94|RMSD=2.634e-009|PG=C01 [X(C9H10N2)]||@



 WE LOSE BECAUSE WE WIN

 GAMBLERS,

 RECOLLECTING WHICH,

 TOSS THEIR DICE AGAIN....


                          EMILY DICKINSON  BOLTS OF MELODY NO. 533
 Job cpu time:  0 days  0 hours  0 minutes 13.0 seconds.
 File lengths (MBytes):  RWF=     19 Int=      0 D2E=      0 Chk=      2 Scr=      1
 Normal termination of Gaussian 09 at Sun Jan 12 01:23:59 2025.
