 Entering Link 1 = C:\G09W\l1.exe PID=     21612.
  
 Copyright (c) 1988,1990,1992,1993,1995,1998,2003,2009, Gaussian, Inc.
                  All Rights Reserved.
  
 This is part of the Gaussian(R) 09 program.  It is based on
 the Gaussian(R) 03 system (copyright 2003, Gaussian, Inc.),
 the Gaussian(R) 98 system (copyright 1998, Gaussian, Inc.),
 the Gaussian(R) 94 system (copyright 1995, Gaussian, Inc.),
 the Gaussian 92(TM) system (copyright 1992, Gaussian, Inc.),
 the Gaussian 90(TM) system (copyright 1990, Gaussian, Inc.),
 the Gaussian 88(TM) system (copyright 1988, Gaussian, Inc.),
 the Gaussian 86(TM) system (copyright 1986, Carnegie Mellon
 University), and the Gaussian 82(TM) system (copyright 1983,
 Carnegie Mellon University). Gaussian is a federally registered
 trademark of Gaussian, Inc.
  
 This software contains proprietary and confidential information,
 including trade secrets, belonging to Gaussian, Inc.
  
 This software is provided under written license and may be
 used, copied, transmitted, or stored only in accord with that
 written license.
  
 The following legend is applicable only to US Government
 contracts under FAR:
  
                    RESTRICTED RIGHTS LEGEND
  
 Use, reproduction and disclosure by the US Government is
 subject to restrictions as set forth in subparagraphs (a)
 and (c) of the Commercial Computer Software - Restricted
 Rights clause in FAR 52.227-19.
  
 Gaussian, Inc.
 340 Quinnipiac St., Bldg. 40, Wallingford CT 06492
  
  
 ---------------------------------------------------------------
 Warning -- This program may not be used in any manner that
 competes with the business of Gaussian, Inc. or will provide
 assistance to any competitor of Gaussian, Inc.  The licensee
 of this program is prohibited from giving any competitor of
 Gaussian, Inc. access to this program.  By using this program,
 the user acknowledges that Gaussian, Inc. is engaged in the
 business of creating and licensing software in the field of
 computational chemistry and represents and warrants to the
 licensee that it is not a competitor of Gaussian, Inc. and that
 it will not use this program in any manner prohibited above.
 ---------------------------------------------------------------
  

 Cite this work as:
 Gaussian 09, Revision A.02,
 M. J. Frisch, G. W. Trucks, H. B. Schlegel, G. E. Scuseria, 
 M. A. Robb, J. R. Cheeseman, G. Scalmani, V. Barone, B. Mennucci, 
 G. A. Petersson, H. Nakatsuji, M. Caricato, X. Li, H. P. Hratchian, 
 A. F. Izmaylov, J. Bloino, G. Zheng, J. L. Sonnenberg, M. Hada, 
 M. Ehara, K. Toyota, R. Fukuda, J. Hasegawa, M. Ishida, T. Nakajima, 
 Y. Honda, O. Kitao, H. Nakai, T. Vreven, J. A. Montgomery, Jr., 
 J. E. Peralta, F. Ogliaro, M. Bearpark, J. J. Heyd, E. Brothers, 
 K. N. Kudin, V. N. Staroverov, R. Kobayashi, J. Normand, 
 K. Raghavachari, A. Rendell, J. C. Burant, S. S. Iyengar, J. Tomasi, 
 M. Cossi, N. Rega, J. M. Millam, M. Klene, J. E. Knox, J. B. Cross, 
 V. Bakken, C. Adamo, J. Jaramillo, R. Gomperts, R. E. Stratmann, 
 O. Yazyev, A. J. Austin, R. Cammi, C. Pomelli, J. W. Ochterski, 
 R. L. Martin, K. Morokuma, V. G. Zakrzewski, G. A. Voth, 
 P. Salvador, J. J. Dannenberg, S. Dapprich, A. D. Daniels, 
 O. Farkas, J. B. Foresman, J. V. Ortiz, J. Cioslowski, 
 and D. J. Fox, Gaussian, Inc., Wallingford CT, 2009.
 
 ******************************************
 Gaussian 09:  IA32W-G09RevA.02 11-Jun-2009
                15-Jan-2025 
 ******************************************
 %chk=C:\G09W\Final\energy.chk
 -------------------------------
 # b3lyp/3-21g geom=connectivity
 -------------------------------
 1/38=1,57=2/1;
 2/12=2,17=6,18=5,40=1/2;
 3/5=5,11=2,16=1,25=1,30=1,74=-5/1,2,3;
 4//1;
 5/5=2,38=5/2;
 6/7=2,8=2,9=2,10=2,28=1/1;
 99/5=1,9=1/99;
 -------------------
 Title Card Required
 -------------------
 Symbolic Z-matrix:
 Charge =  0 Multiplicity = 1
 C                    -2.35124  -0.74827   0.08065 
 C                    -0.95695  -0.86462   0.16026 
 C                    -0.16477   0.28313   0.29826 
 C                    -0.76689   1.54724   0.35666 
 C                    -2.16118   1.66359   0.27705 
 C                    -2.95336   0.51583   0.13905 
 H                    -2.95608  -1.62461  -0.02472 
 H                    -0.49722  -1.8298    0.11567 
 H                    -0.16205   2.42357   0.46202 
 H                    -2.62092   2.62876   0.32164 
 C                     1.36741   0.15527   0.38573 
 N                     2.5082    0.06008   0.45086 
 N                    -4.4159    0.63788   0.05555 
 C                    -4.8532    1.81848   0.8144 
 H                    -4.39808   2.69532   0.40342 
 H                    -5.91778   1.90732   0.75362 
 H                    -4.56206   1.71214   1.83852 
 C                    -4.81588   0.78397  -1.35143 
 H                    -4.49757  -0.07537  -1.90379 
 H                    -5.88045   0.87281  -1.41221 
 H                    -4.36076   1.66082  -1.76241 
 
                          Input orientation:                          
 ---------------------------------------------------------------------
 Center     Atomic      Atomic             Coordinates (Angstroms)
 Number     Number       Type             X           Y           Z
 ---------------------------------------------------------------------
      1          6           0       -2.351237   -0.748272    0.080649
      2          6           0       -0.956946   -0.864623    0.160255
      3          6           0       -0.164774    0.283132    0.298257
      4          6           0       -0.766893    1.547238    0.356655
      5          6           0       -2.161184    1.663589    0.277050
      6          6           0       -2.953356    0.515835    0.139047
      7          1           0       -2.956078   -1.624608   -0.024720
      8          1           0       -0.497215   -1.829796    0.115668
      9          1           0       -0.162052    2.423574    0.462024
     10          1           0       -2.620916    2.628762    0.321640
     11          6           0        1.367414    0.155273    0.385732
     12          7           0        2.508198    0.060078    0.450861
     13          7           0       -4.415899    0.637882    0.055545
     14          6           0       -4.853204    1.818478    0.814398
     15          1           0       -4.398083    2.695324    0.403416
     16          1           0       -5.917776    1.907315    0.753618
     17          1           0       -4.562063    1.712141    1.838522
     18          6           0       -4.815878    0.783971   -1.351428
     19          1           0       -4.497567   -0.075374   -1.903790
     20          1           0       -5.880450    0.872808   -1.412208
     21          1           0       -4.360757    1.660817   -1.762410
 ---------------------------------------------------------------------
                    Distance matrix (angstroms):
                    1          2          3          4          5
     1  C    0.000000
     2  C    1.401400   0.000000
     3  C    2.427296   1.401400   0.000000
     4  C    2.802800   2.427296   1.401400   0.000000
     5  C    2.427296   2.802800   2.427296   1.401400   0.000000
     6  C    1.401400   2.427296   2.802800   2.427296   1.401400
     7  H    1.070000   2.146700   3.396345   3.872800   3.396345
     8  H    2.146700   1.070000   2.146700   3.396345   3.872800
     9  H    3.872800   3.396345   2.146700   1.070000   2.146700
    10  H    3.396345   3.872800   3.396345   2.146700   1.070000
    11  C    3.838989   2.548270   1.540000   2.548270   3.838989
    12  N    4.940100   3.598159   2.686600   3.598158   4.940100
    13  N    2.486942   3.772644   4.272800   3.772644   2.486942
    14  C    3.658747   4.775747   4.960349   4.120805   2.749492
    15  H    4.018968   4.957194   4.873462   3.808652   2.466609
    16  H    4.497246   5.713629   5.995194   5.178690   3.794536
    17  H    3.745864   4.738476   4.873462   4.077553   2.864397
    18  C    3.236212   4.460314   4.960349   4.460314   3.236212
    19  H    2.999587   4.173631   4.873462   4.654075   3.638508
    20  H    4.160753   5.452724   5.995194   5.452724   4.160753
    21  H    3.638508   4.654075   4.873462   4.173631   2.999587
                    6          7          8          9         10
     6  C    0.000000
     7  H    2.146700   0.000000
     8  H    3.396345   2.471400   0.000000
     9  H    3.396345   4.942800   4.280590   0.000000
    10  H    2.146700   4.280590   4.942800   2.471400   0.000000
    11  C    4.342800   4.693509   2.736837   2.736837   4.693509
    12  N    5.489400   5.737826   3.566018   3.566016   5.737825
    13  N    1.470000   2.693766   4.631321   4.631321   2.693767
    14  C    2.400500   4.019707   5.724750   4.743123   2.425383
    15  H    2.628174   4.574329   5.981328   4.245143   1.780293
    16  H    3.331921   4.674606   6.614791   5.786182   3.402408
    17  H    2.628174   4.145449   5.660082   4.664866   2.628531
    18  C    2.400500   3.319678   5.256900   5.256900   3.319679
    19  H    2.628174   2.882224   4.812382   5.535206   3.973250
    20  H    3.331921   4.088295   6.214313   6.214313   4.088297
    21  H    2.628174   3.973248   5.535207   4.812382   2.882227
                   11         12         13         14         15
    11  C    0.000000
    12  N    1.146600   0.000000
    13  N    5.812800   6.959400   0.000000
    14  C    6.453378   7.577227   1.470000   0.000000
    15  H    6.300248   7.392123   2.086720   1.070000   0.000000
    16  H    7.501932   8.631395   2.086720   1.070000   1.747303
    17  H    6.300249   7.392124   2.086720   1.070000   1.747303
    18  C    6.453377   7.577226   1.470000   2.400500   2.628174
    19  H    6.300247   7.392122   2.086720   3.331921   3.606919
    20  H    7.501931   8.631394   2.086720   2.628174   2.969085
    21  H    6.300247   7.392122   2.086720   2.628174   2.400500
                   16         17         18         19         20
    16  H    0.000000
    17  H    1.747303   0.000000
    18  C    2.628174   3.331921   0.000000
    19  H    3.606919   4.147803   1.070000   0.000000
    20  H    2.400500   3.606919   1.070000   1.747303   0.000000
    21  H    2.969085   3.606919   1.070000   1.747303   1.747303
                   21
    21  H    0.000000
 Stoichiometry    C9H10N2
 Framework group  C1[X(C9H10N2)]
 Deg. of freedom    57
 Full point group                 C1      NOp   1
 Largest Abelian subgroup         C1      NOp   1
 Largest concise Abelian subgroup C1      NOp   1
                         Standard orientation:                         
 ---------------------------------------------------------------------
 Center     Atomic      Atomic             Coordinates (Angstroms)
 Number     Number       Type             X           Y           Z
 ---------------------------------------------------------------------
      1          6           0       -0.131413    1.316058   -0.424302
      2          6           0        1.263703    1.215701   -0.337699
      3          6           0        1.858836   -0.008676   -0.005071
      4          6           0        1.058852   -1.132696    0.240951
      5          6           0       -0.336264   -1.032339    0.154347
      6          6           0       -0.931397    0.192038   -0.178280
      7          1           0       -0.585811    2.250897   -0.678269
      8          1           0        1.874509    2.073915   -0.525543
      9          1           0        1.513249   -2.067535    0.494918
     10          1           0       -0.947070   -1.890554    0.342188
     11          6           0        3.391931   -0.118957    0.090101
     12          7           0        4.533390   -0.201068    0.160962
     13          7           0       -2.394806    0.297307   -0.269123
     14          6           0       -2.954302   -0.996910   -0.684896
     15          1           0       -2.694513   -1.745367    0.034285
     16          1           0       -4.019504   -0.920285   -0.751020
     17          1           0       -2.556140   -1.267126   -1.640589
     18          6           0       -2.941813    0.668539    1.043839
     19          1           0       -2.534561    1.610588    1.346476
     20          1           0       -4.007016    0.745163    0.977715
     21          1           0       -2.682024   -0.079919    1.763020
 ---------------------------------------------------------------------
 Rotational constants (GHZ):      3.4202353      0.5605821      0.5164084
 Standard basis: 3-21G (6D, 7F)
 There are   119 symmetry adapted basis functions of A   symmetry.
 Integral buffers will be    262144 words long.
 Raffenetti 2 integral format.
 Two-electron integral symmetry is turned on.
   119 basis functions,   195 primitive gaussians,   119 cartesian basis functions
    39 alpha electrons       39 beta electrons
       nuclear repulsion energy       545.8402255254 Hartrees.
 NAtoms=   21 NActive=   21 NUniq=   21 SFac= 7.50D-01 NAtFMM=   80 NAOKFM=F Big=F
 One-electron integrals computed using PRISM.
 NBasis=   119 RedAO= T  NBF=   119
 NBsUse=   119 1.00D-06 NBFU=   119
 Harris functional with IExCor=  402 diagonalized for initial guess.
 ExpMin= 1.83D-01 ExpMax= 2.43D+02 ExpMxC= 2.43D+02 IAcc=1 IRadAn=         1 AccDes= 0.00D+00
 HarFok:  IExCor=  402 AccDes= 0.00D+00 IRadAn=         1 IDoV= 1
 ScaDFX=  1.000000  1.000000  1.000000  1.000000
 FoFCou: FMM=F IPFlag=           0 FMFlag=      100000 FMFlg1=           0
         NFxFlg=           0 DoJE=T BraDBF=F KetDBF=T FulRan=T
         Omega=  0.000000  0.000000  1.000000  0.000000  0.000000 ICntrl=     500 IOpCl=  0
         NMat0=    1 NMatS0=    1 NMatT0=    0 NMatD0=    1 NMtDS0=    0 NMtDT0=    0
         I1Cent=           4 NGrid=           0.
 Petite list used in FoFCou.
 Initial guess orbital symmetries:
       Occupied  (A) (A) (A) (A) (A) (A) (A) (A) (A) (A) (A) (A)
                 (A) (A) (A) (A) (A) (A) (A) (A) (A) (A) (A) (A)
                 (A) (A) (A) (A) (A) (A) (A) (A) (A) (A) (A) (A)
                 (A) (A) (A)
       Virtual   (A) (A) (A) (A) (A) (A) (A) (A) (A) (A) (A) (A)
                 (A) (A) (A) (A) (A) (A) (A) (A) (A) (A) (A) (A)
                 (A) (A) (A) (A) (A) (A) (A) (A) (A) (A) (A) (A)
                 (A) (A) (A) (A) (A) (A) (A) (A) (A) (A) (A) (A)
                 (A) (A) (A) (A) (A) (A) (A) (A) (A) (A) (A) (A)
                 (A) (A) (A) (A) (A) (A) (A) (A) (A) (A) (A) (A)
                 (A) (A) (A) (A) (A) (A) (A) (A)
 The electronic state of the initial guess is 1-A.
 Requested convergence on RMS density matrix=1.00D-08 within 128 cycles.
 Requested convergence on MAX density matrix=1.00D-06.
 Requested convergence on             energy=1.00D-06.
 No special actions if energy rises.
 Keep R1 ints in memory in canonical form, NReq=26662962.
 Integral accuracy reduced to 1.0D-05 until final iterations.
 Initial convergence to 1.0D-05 achieved.  Increase integral accuracy.
 SCF Done:  E(RB3LYP) =  -455.920768852     A.U. after   15 cycles
             Convg  =    0.6770D-08             -V/T =  2.0081

 **********************************************************************

            Population analysis using the SCF density.

 **********************************************************************

 Orbital symmetries:
       Occupied  (A) (A) (A) (A) (A) (A) (A) (A) (A) (A) (A) (A)
                 (A) (A) (A) (A) (A) (A) (A) (A) (A) (A) (A) (A)
                 (A) (A) (A) (A) (A) (A) (A) (A) (A) (A) (A) (A)
                 (A) (A) (A)
       Virtual   (A) (A) (A) (A) (A) (A) (A) (A) (A) (A) (A) (A)
                 (A) (A) (A) (A) (A) (A) (A) (A) (A) (A) (A) (A)
                 (A) (A) (A) (A) (A) (A) (A) (A) (A) (A) (A) (A)
                 (A) (A) (A) (A) (A) (A) (A) (A) (A) (A) (A) (A)
                 (A) (A) (A) (A) (A) (A) (A) (A) (A) (A) (A) (A)
                 (A) (A) (A) (A) (A) (A) (A) (A) (A) (A) (A) (A)
                 (A) (A) (A) (A) (A) (A) (A) (A)
 The electronic state is 1-A.
 Alpha  occ. eigenvalues --  -14.26659 -14.25051 -10.18755 -10.18198 -10.16597
 Alpha  occ. eigenvalues --  -10.15704 -10.15605 -10.14737 -10.14674 -10.14556
 Alpha  occ. eigenvalues --  -10.14419  -0.95386  -0.93182  -0.87660  -0.77539
 Alpha  occ. eigenvalues --   -0.77418  -0.72656  -0.67376  -0.63922  -0.60864
 Alpha  occ. eigenvalues --   -0.56848  -0.50992  -0.50191  -0.48031  -0.46841
 Alpha  occ. eigenvalues --   -0.45626  -0.44663  -0.43055  -0.40969  -0.39867
 Alpha  occ. eigenvalues --   -0.38579  -0.38091  -0.37413  -0.34875  -0.34317
 Alpha  occ. eigenvalues --   -0.34102  -0.27529  -0.27357  -0.22193
 Alpha virt. eigenvalues --   -0.03632  -0.02086   0.04979   0.08223   0.08867
 Alpha virt. eigenvalues --    0.11283   0.13571   0.15298   0.15354   0.16416
 Alpha virt. eigenvalues --    0.17430   0.18347   0.18604   0.19617   0.20860
 Alpha virt. eigenvalues --    0.21164   0.24382   0.25717   0.27385   0.32994
 Alpha virt. eigenvalues --    0.33986   0.35079   0.35560   0.49750   0.53504
 Alpha virt. eigenvalues --    0.57334   0.63647   0.65355   0.65921   0.68460
 Alpha virt. eigenvalues --    0.68988   0.69953   0.71601   0.72079   0.74477
 Alpha virt. eigenvalues --    0.75505   0.76740   0.77768   0.80220   0.81776
 Alpha virt. eigenvalues --    0.83530   0.85080   0.86854   0.91950   0.92290
 Alpha virt. eigenvalues --    0.93930   0.95050   0.99415   1.00261   1.00287
 Alpha virt. eigenvalues --    1.01514   1.05769   1.06658   1.08593   1.13004
 Alpha virt. eigenvalues --    1.15037   1.17066   1.17862   1.19919   1.20802
 Alpha virt. eigenvalues --    1.23241   1.26498   1.30038   1.34491   1.37925
 Alpha virt. eigenvalues --    1.46340   1.47249   1.49977   1.51854   1.53196
 Alpha virt. eigenvalues --    1.54004   1.59636   1.74609   1.81905   1.88284
 Alpha virt. eigenvalues --    1.95120   2.06397   2.45205   2.89482   2.94827
          Condensed to atoms (all electrons):
              1          2          3          4          5          6
     1  C    5.173367   0.433147  -0.080561  -0.019337  -0.097652   0.456309
     2  C    0.433147   5.158778   0.440509  -0.067996  -0.017443  -0.074064
     3  C   -0.080561   0.440509   5.300121   0.448293  -0.083241  -0.025320
     4  C   -0.019337  -0.067996   0.448293   5.148775   0.416118  -0.055482
     5  C   -0.097652  -0.017443  -0.083241   0.416118   5.324137   0.352244
     6  C    0.456309  -0.074064  -0.025320  -0.055482   0.352244   5.120930
     7  H    0.382284  -0.037240   0.003983  -0.000372   0.005045  -0.040091
     8  H   -0.033399   0.392693  -0.040747   0.003451  -0.000139   0.003888
     9  H   -0.000116   0.003439  -0.039821   0.392558  -0.033597   0.003213
    10  H    0.003023  -0.000068   0.003741  -0.037808   0.392649  -0.051928
    11  C    0.003075  -0.059678   0.164800  -0.059146   0.003387  -0.000121
    12  N   -0.000001  -0.000232  -0.083275  -0.000242  -0.000001   0.000000
    13  N   -0.053638   0.002989  -0.000198   0.003843  -0.062930   0.298934
    14  C    0.002661  -0.000140  -0.000006   0.000699  -0.017121  -0.091216
    15  H   -0.000321   0.000018  -0.000003  -0.000519  -0.001937  -0.009729
    16  H   -0.000041   0.000000   0.000000  -0.000001   0.000322   0.004864
    17  H    0.000449  -0.000016  -0.000004  -0.000018   0.000331  -0.001320
    18  C   -0.002908  -0.000078   0.000017   0.000003   0.000335  -0.099155
    19  H    0.002933  -0.000099   0.000002   0.000008  -0.000468  -0.002726
    20  H    0.000048   0.000000   0.000000   0.000003  -0.000185   0.005412
    21  H   -0.000353   0.000045  -0.000012  -0.000295   0.006865  -0.006876
              7          8          9         10         11         12
     1  C    0.382284  -0.033399  -0.000116   0.003023   0.003075  -0.000001
     2  C   -0.037240   0.392693   0.003439  -0.000068  -0.059678  -0.000232
     3  C    0.003983  -0.040747  -0.039821   0.003741   0.164800  -0.083275
     4  C   -0.000372   0.003451   0.392558  -0.037808  -0.059146  -0.000242
     5  C    0.005045  -0.000139  -0.033597   0.392649   0.003387  -0.000001
     6  C   -0.040091   0.003888   0.003213  -0.051928  -0.000121   0.000000
     7  H    0.480933  -0.003852   0.000002  -0.000032  -0.000044   0.000000
     8  H   -0.003852   0.471613  -0.000048   0.000001  -0.004496  -0.000113
     9  H    0.000002  -0.000048   0.472217  -0.003190  -0.004426  -0.000110
    10  H   -0.000032   0.000001  -0.003190   0.482049  -0.000047   0.000000
    11  C   -0.000044  -0.004496  -0.004426  -0.000047   4.844869   0.797478
    12  N    0.000000  -0.000113  -0.000110   0.000000   0.797478   6.761116
    13  N    0.000238  -0.000015  -0.000018  -0.009117   0.000000   0.000000
    14  C   -0.000007   0.000001  -0.000002   0.000559   0.000000   0.000000
    15  H    0.000021   0.000000   0.000016   0.014460   0.000000   0.000000
    16  H   -0.000007   0.000000   0.000000  -0.000068   0.000000   0.000000
    17  H   -0.000020   0.000000  -0.000001  -0.000578   0.000000   0.000000
    18  C    0.000312   0.000001   0.000000  -0.000161   0.000000   0.000000
    19  H    0.000161   0.000001   0.000000  -0.000022   0.000000   0.000000
    20  H   -0.000046   0.000000   0.000000  -0.000032   0.000000   0.000000
    21  H    0.000115   0.000000   0.000003   0.001291   0.000000   0.000000
             13         14         15         16         17         18
     1  C   -0.053638   0.002661  -0.000321  -0.000041   0.000449  -0.002908
     2  C    0.002989  -0.000140   0.000018   0.000000  -0.000016  -0.000078
     3  C   -0.000198  -0.000006  -0.000003   0.000000  -0.000004   0.000017
     4  C    0.003843   0.000699  -0.000519  -0.000001  -0.000018   0.000003
     5  C   -0.062930  -0.017121  -0.001937   0.000322   0.000331   0.000335
     6  C    0.298934  -0.091216  -0.009729   0.004864  -0.001320  -0.099155
     7  H    0.000238  -0.000007   0.000021  -0.000007  -0.000020   0.000312
     8  H   -0.000015   0.000001   0.000000   0.000000   0.000000   0.000001
     9  H   -0.000018  -0.000002   0.000016   0.000000  -0.000001   0.000000
    10  H   -0.009117   0.000559   0.014460  -0.000068  -0.000578  -0.000161
    11  C    0.000000   0.000000   0.000000   0.000000   0.000000   0.000000
    12  N    0.000000   0.000000   0.000000   0.000000   0.000000   0.000000
    13  N    7.034510   0.286815  -0.053560  -0.029789  -0.030088   0.288414
    14  C    0.286815   5.264503   0.324633   0.370412   0.373050  -0.097432
    15  H   -0.053560   0.324633   0.614532  -0.037135  -0.039261  -0.004486
    16  H   -0.029789   0.370412  -0.037135   0.502781  -0.020923  -0.002179
    17  H   -0.030088   0.373050  -0.039261  -0.020923   0.492841   0.004805
    18  C    0.288414  -0.097432  -0.004486  -0.002179   0.004805   5.261521
    19  H   -0.030734   0.004842  -0.000312   0.000062  -0.000115   0.370865
    20  H   -0.030280  -0.002051  -0.001393   0.003905   0.000053   0.365930
    21  H   -0.053561  -0.005298   0.014335  -0.001352  -0.000316   0.332421
             19         20         21
     1  C    0.002933   0.000048  -0.000353
     2  C   -0.000099   0.000000   0.000045
     3  C    0.000002   0.000000  -0.000012
     4  C    0.000008   0.000003  -0.000295
     5  C   -0.000468  -0.000185   0.006865
     6  C   -0.002726   0.005412  -0.006876
     7  H    0.000161  -0.000046   0.000115
     8  H    0.000001   0.000000   0.000000
     9  H    0.000000   0.000000   0.000003
    10  H   -0.000022  -0.000032   0.001291
    11  C    0.000000   0.000000   0.000000
    12  N    0.000000   0.000000   0.000000
    13  N   -0.030734  -0.030280  -0.053561
    14  C    0.004842  -0.002051  -0.005298
    15  H   -0.000312  -0.001393   0.014335
    16  H    0.000062   0.003905  -0.001352
    17  H   -0.000115   0.000053  -0.000316
    18  C    0.370865   0.365930   0.332421
    19  H    0.497893  -0.021815  -0.036006
    20  H   -0.021815   0.510870  -0.038475
    21  H   -0.036006  -0.038475   0.602877
 Mulliken atomic charges:
              1
     1  C   -0.168968
     2  C   -0.174564
     3  C   -0.008278
     4  C   -0.172534
     5  C   -0.186718
     6  C    0.212234
     7  H    0.208618
     8  H    0.211162
     9  H    0.209880
    10  H    0.205279
    11  C    0.314351
    12  N   -0.474618
    13  N   -0.561815
    14  C   -0.414903
    15  H    0.180643
    16  H    0.209149
    17  H    0.221133
    18  C   -0.418226
    19  H    0.215529
    20  H    0.208055
    21  H    0.184594
 Sum of Mulliken atomic charges =   0.00000
 Mulliken charges with hydrogens summed into heavy atoms:
              1
     1  C    0.039650
     2  C    0.036598
     3  C   -0.008278
     4  C    0.037346
     5  C    0.018560
     6  C    0.212234
    11  C    0.314351
    12  N   -0.474618
    13  N   -0.561815
    14  C    0.196021
    18  C    0.189952
 Sum of Mulliken charges with hydrogens summed into heavy atoms =   0.00000
 Electronic spatial extent (au):  <R**2>=           2150.6004
 Charge=              0.0000 electrons
 Dipole moment (field-independent basis, Debye):
    X=             -4.8625    Y=             -0.3711    Z=              0.5142  Tot=              4.9036
 Quadrupole moment (field-independent basis, Debye-Ang):
   XX=            -82.6689   YY=            -58.4648   ZZ=            -67.1286
   XY=              3.7706   XZ=             -3.0748   YZ=             -0.3257
 Traceless Quadrupole moment (field-independent basis, Debye-Ang):
   XX=            -13.2482   YY=             10.9560   ZZ=              2.2922
   XY=              3.7706   XZ=             -3.0748   YZ=             -0.3257
 Octapole moment (field-independent basis, Debye-Ang**2):
  XXX=           -153.8853  YYY=              2.7618  ZZZ=              0.1394  XYY=              1.2540
  XXY=              1.7558  XXZ=              0.3192  XZZ=             -4.8413  YZZ=             -0.6924
  YYZ=              0.0483  XYZ=             -6.6252
 Hexadecapole moment (field-independent basis, Debye-Ang**3):
 XXXX=          -2909.5654 YYYY=           -354.9847 ZZZZ=           -174.7762 XXXY=             50.5108
 XXXZ=            -40.6563 YYYX=             -1.2409 YYYZ=            -10.8554 ZZZX=              2.4539
 ZZZY=              4.5352 XXYY=           -438.1284 XXZZ=           -417.5571 YYZZ=            -93.2221
 XXYZ=             11.5321 YYXZ=             -1.9094 ZZXY=              1.3138
 N-N= 5.458402255254D+02 E-N=-2.148238978667D+03  KE= 4.522569464862D+02
 1|1|UNPC-DESKTOP-K2VF0AK|SP|RB3LYP|3-21G|C9H10N2|MELIH|15-Jan-2025|0||
 # b3lyp/3-21g geom=connectivity||Title Card Required||0,1|C,0,-2.35123
 729,-0.74827155,0.08064918|C,0,-0.95694636,-0.86462315,0.16025501|C,0,
 -0.1647743,0.28313154,0.29825699|C,0,-0.76689329,1.54723767,0.35665527
 |C,0,-2.16118423,1.66358926,0.27704977|C,0,-2.95335625,0.51583462,0.13
 904706|H,0,-2.95607812,-1.62460758,-0.02472028|H,0,-0.49721524,-1.8297
 9635,0.11566804|H,0,-0.16205241,2.42357375,0.46202409|H,0,-2.62091558,
 2.62876217,0.32164041|C,0,1.36741377,0.15527292,0.38573206|N,0,2.50819
 756,0.06007789,0.45086135|N,0,-4.41589924,0.63788168,0.05554549|C,0,-4
 .85320402,1.81847802,0.81439779|H,0,-4.39808298,2.69532395,0.40341598|
 H,0,-5.91777613,1.907315,0.75361774|H,0,-4.56206324,1.71214075,1.83852
 153|C,0,-4.8158777,0.78397121,-1.35142824|H,0,-4.49756742,-0.07537443,
 -1.90379012|H,0,-5.88044981,0.87280819,-1.41220829|H,0,-4.36075665,1.6
 6081714,-1.76241005||Version=IA32W-G09RevA.02|State=1-A|HF=-455.920768
 9|RMSD=6.770e-009|Dipole=-1.8291775,0.5233464,-0.3196638|Quadrupole=-1
 0.656311,8.2933887,2.3629223,-0.3837467,0.3680036,1.4267525|PG=C01 [X(
 C9H10N2)]||@


 NOTHING RESEMBLES A NEW PHENOMENON AS MUCH AS A MISTAKE.

                               -- ENRICO FERMI (?)
 Job cpu time:  0 days  0 hours  0 minutes 24.0 seconds.
 File lengths (MBytes):  RWF=     10 Int=      0 D2E=      0 Chk=      1 Scr=      1
 Normal termination of Gaussian 09 at Wed Jan 15 23:52:59 2025.
