 Entering Link 1 = C:\G09W\l1.exe PID=     10768.
  
 Copyright (c) 1988,1990,1992,1993,1995,1998,2003,2009, Gaussian, Inc.
                  All Rights Reserved.
  
 This is part of the Gaussian(R) 09 program.  It is based on
 the Gaussian(R) 03 system (copyright 2003, Gaussian, Inc.),
 the Gaussian(R) 98 system (copyright 1998, Gaussian, Inc.),
 the Gaussian(R) 94 system (copyright 1995, Gaussian, Inc.),
 the Gaussian 92(TM) system (copyright 1992, Gaussian, Inc.),
 the Gaussian 90(TM) system (copyright 1990, Gaussian, Inc.),
 the Gaussian 88(TM) system (copyright 1988, Gaussian, Inc.),
 the Gaussian 86(TM) system (copyright 1986, Carnegie Mellon
 University), and the Gaussian 82(TM) system (copyright 1983,
 Carnegie Mellon University). Gaussian is a federally registered
 trademark of Gaussian, Inc.
  
 This software contains proprietary and confidential information,
 including trade secrets, belonging to Gaussian, Inc.
  
 This software is provided under written license and may be
 used, copied, transmitted, or stored only in accord with that
 written license.
  
 The following legend is applicable only to US Government
 contracts under FAR:
  
                    RESTRICTED RIGHTS LEGEND
  
 Use, reproduction and disclosure by the US Government is
 subject to restrictions as set forth in subparagraphs (a)
 and (c) of the Commercial Computer Software - Restricted
 Rights clause in FAR 52.227-19.
  
 Gaussian, Inc.
 340 Quinnipiac St., Bldg. 40, Wallingford CT 06492
  
  
 ---------------------------------------------------------------
 Warning -- This program may not be used in any manner that
 competes with the business of Gaussian, Inc. or will provide
 assistance to any competitor of Gaussian, Inc.  The licensee
 of this program is prohibited from giving any competitor of
 Gaussian, Inc. access to this program.  By using this program,
 the user acknowledges that Gaussian, Inc. is engaged in the
 business of creating and licensing software in the field of
 computational chemistry and represents and warrants to the
 licensee that it is not a competitor of Gaussian, Inc. and that
 it will not use this program in any manner prohibited above.
 ---------------------------------------------------------------
  

 Cite this work as:
 Gaussian 09, Revision A.02,
 M. J. Frisch, G. W. Trucks, H. B. Schlegel, G. E. Scuseria, 
 M. A. Robb, J. R. Cheeseman, G. Scalmani, V. Barone, B. Mennucci, 
 G. A. Petersson, H. Nakatsuji, M. Caricato, X. Li, H. P. Hratchian, 
 A. F. Izmaylov, J. Bloino, G. Zheng, J. L. Sonnenberg, M. Hada, 
 M. Ehara, K. Toyota, R. Fukuda, J. Hasegawa, M. Ishida, T. Nakajima, 
 Y. Honda, O. Kitao, H. Nakai, T. Vreven, J. A. Montgomery, Jr., 
 J. E. Peralta, F. Ogliaro, M. Bearpark, J. J. Heyd, E. Brothers, 
 K. N. Kudin, V. N. Staroverov, R. Kobayashi, J. Normand, 
 K. Raghavachari, A. Rendell, J. C. Burant, S. S. Iyengar, J. Tomasi, 
 M. Cossi, N. Rega, J. M. Millam, M. Klene, J. E. Knox, J. B. Cross, 
 V. Bakken, C. Adamo, J. Jaramillo, R. Gomperts, R. E. Stratmann, 
 O. Yazyev, A. J. Austin, R. Cammi, C. Pomelli, J. W. Ochterski, 
 R. L. Martin, K. Morokuma, V. G. Zakrzewski, G. A. Voth, 
 P. Salvador, J. J. Dannenberg, S. Dapprich, A. D. Daniels, 
 O. Farkas, J. B. Foresman, J. V. Ortiz, J. Cioslowski, 
 and D. J. Fox, Gaussian, Inc., Wallingford CT, 2009.
 
 ******************************************
 Gaussian 09:  IA32W-G09RevA.02 11-Jun-2009
                15-Jan-2025 
 ******************************************
 %chk=C:\G09W\Final\freq.chk
 ------------------------------------
 # freq b3lyp/6-31g geom=connectivity
 ------------------------------------
 1/10=4,30=1,38=1,57=2/1,3;
 2/12=2,17=6,18=5,40=1/2;
 3/5=1,6=6,11=2,16=1,25=1,30=1,71=2,74=-5/1,2,3;
 4//1;
 5/5=2,38=5,98=1/2;
 8/6=4,10=90,11=11/1;
 11/6=1,8=1,9=11,15=111,16=1/1,2,10;
 10/6=1/2;
 6/7=2,8=2,9=2,10=2,18=1,28=1/1;
 7/8=1,10=1,25=1/1,2,3,16;
 1/10=4,30=1/3;
 99//99;
 -------------------
 Title Card Required
 -------------------
 Symbolic Z-matrix:
 Charge =  0 Multiplicity = 1
 C                    -2.35124  -0.74827   0.08065 
 C                    -0.95695  -0.86462   0.16026 
 C                    -0.16477   0.28313   0.29826 
 C                    -0.76689   1.54724   0.35666 
 C                    -2.16118   1.66359   0.27705 
 C                    -2.95336   0.51583   0.13905 
 H                    -2.95608  -1.62461  -0.02472 
 H                    -0.49722  -1.8298    0.11567 
 H                    -0.16205   2.42357   0.46202 
 H                    -2.62092   2.62876   0.32164 
 C                     1.36741   0.15527   0.38573 
 N                     2.5082    0.06008   0.45086 
 N                    -4.4159    0.63788   0.05555 
 C                    -4.8532    1.81848   0.8144 
 H                    -4.39808   2.69532   0.40342 
 H                    -5.91778   1.90732   0.75362 
 H                    -4.56206   1.71214   1.83852 
 C                    -4.81588   0.78397  -1.35143 
 H                    -4.49757  -0.07537  -1.90379 
 H                    -5.88045   0.87281  -1.41221 
 H                    -4.36076   1.66082  -1.76241 
 

 GradGradGradGradGradGradGradGradGradGradGradGradGradGradGradGradGradGrad
 Berny optimization.
 Initialization pass.
 Trust Radius=3.00D-01 FncErr=1.00D-07 GrdErr=1.00D-07
 Number of steps in this run=   2 maximum allowed number of steps=   2.
 GradGradGradGradGradGradGradGradGradGradGradGradGradGradGradGradGradGrad

                          Input orientation:                          
 ---------------------------------------------------------------------
 Center     Atomic      Atomic             Coordinates (Angstroms)
 Number     Number       Type             X           Y           Z
 ---------------------------------------------------------------------
      1          6           0       -2.351237   -0.748272    0.080649
      2          6           0       -0.956946   -0.864623    0.160255
      3          6           0       -0.164774    0.283132    0.298257
      4          6           0       -0.766893    1.547238    0.356655
      5          6           0       -2.161184    1.663589    0.277050
      6          6           0       -2.953356    0.515835    0.139047
      7          1           0       -2.956078   -1.624608   -0.024720
      8          1           0       -0.497215   -1.829796    0.115668
      9          1           0       -0.162052    2.423574    0.462024
     10          1           0       -2.620916    2.628762    0.321640
     11          6           0        1.367414    0.155273    0.385732
     12          7           0        2.508198    0.060078    0.450861
     13          7           0       -4.415899    0.637882    0.055545
     14          6           0       -4.853204    1.818478    0.814398
     15          1           0       -4.398083    2.695324    0.403416
     16          1           0       -5.917776    1.907315    0.753618
     17          1           0       -4.562063    1.712141    1.838522
     18          6           0       -4.815878    0.783971   -1.351428
     19          1           0       -4.497567   -0.075374   -1.903790
     20          1           0       -5.880450    0.872808   -1.412208
     21          1           0       -4.360757    1.660817   -1.762410
 ---------------------------------------------------------------------
                    Distance matrix (angstroms):
                    1          2          3          4          5
     1  C    0.000000
     2  C    1.401400   0.000000
     3  C    2.427296   1.401400   0.000000
     4  C    2.802800   2.427296   1.401400   0.000000
     5  C    2.427296   2.802800   2.427296   1.401400   0.000000
     6  C    1.401400   2.427296   2.802800   2.427296   1.401400
     7  H    1.070000   2.146700   3.396345   3.872800   3.396345
     8  H    2.146700   1.070000   2.146700   3.396345   3.872800
     9  H    3.872800   3.396345   2.146700   1.070000   2.146700
    10  H    3.396345   3.872800   3.396345   2.146700   1.070000
    11  C    3.838989   2.548270   1.540000   2.548270   3.838989
    12  N    4.940100   3.598159   2.686600   3.598158   4.940100
    13  N    2.486942   3.772644   4.272800   3.772644   2.486942
    14  C    3.658747   4.775747   4.960349   4.120805   2.749492
    15  H    4.018968   4.957194   4.873462   3.808652   2.466609
    16  H    4.497246   5.713629   5.995194   5.178690   3.794536
    17  H    3.745864   4.738476   4.873462   4.077553   2.864397
    18  C    3.236212   4.460314   4.960349   4.460314   3.236212
    19  H    2.999587   4.173631   4.873462   4.654075   3.638508
    20  H    4.160753   5.452724   5.995194   5.452724   4.160753
    21  H    3.638508   4.654075   4.873462   4.173631   2.999587
                    6          7          8          9         10
     6  C    0.000000
     7  H    2.146700   0.000000
     8  H    3.396345   2.471400   0.000000
     9  H    3.396345   4.942800   4.280590   0.000000
    10  H    2.146700   4.280590   4.942800   2.471400   0.000000
    11  C    4.342800   4.693509   2.736837   2.736837   4.693509
    12  N    5.489400   5.737826   3.566018   3.566016   5.737825
    13  N    1.470000   2.693766   4.631321   4.631321   2.693767
    14  C    2.400500   4.019707   5.724750   4.743123   2.425383
    15  H    2.628174   4.574329   5.981328   4.245143   1.780293
    16  H    3.331921   4.674606   6.614791   5.786182   3.402408
    17  H    2.628174   4.145449   5.660082   4.664866   2.628531
    18  C    2.400500   3.319678   5.256900   5.256900   3.319679
    19  H    2.628174   2.882224   4.812382   5.535206   3.973250
    20  H    3.331921   4.088295   6.214313   6.214313   4.088297
    21  H    2.628174   3.973248   5.535207   4.812382   2.882227
                   11         12         13         14         15
    11  C    0.000000
    12  N    1.146600   0.000000
    13  N    5.812800   6.959400   0.000000
    14  C    6.453378   7.577227   1.470000   0.000000
    15  H    6.300248   7.392123   2.086720   1.070000   0.000000
    16  H    7.501932   8.631395   2.086720   1.070000   1.747303
    17  H    6.300249   7.392124   2.086720   1.070000   1.747303
    18  C    6.453377   7.577226   1.470000   2.400500   2.628174
    19  H    6.300247   7.392122   2.086720   3.331921   3.606919
    20  H    7.501931   8.631394   2.086720   2.628174   2.969085
    21  H    6.300247   7.392122   2.086720   2.628174   2.400500
                   16         17         18         19         20
    16  H    0.000000
    17  H    1.747303   0.000000
    18  C    2.628174   3.331921   0.000000
    19  H    3.606919   4.147803   1.070000   0.000000
    20  H    2.400500   3.606919   1.070000   1.747303   0.000000
    21  H    2.969085   3.606919   1.070000   1.747303   1.747303
                   21
    21  H    0.000000
 Stoichiometry    C9H10N2
 Framework group  C1[X(C9H10N2)]
 Deg. of freedom    57
 Full point group                 C1      NOp   1
 Largest Abelian subgroup         C1      NOp   1
 Largest concise Abelian subgroup C1      NOp   1
                         Standard orientation:                         
 ---------------------------------------------------------------------
 Center     Atomic      Atomic             Coordinates (Angstroms)
 Number     Number       Type             X           Y           Z
 ---------------------------------------------------------------------
      1          6           0       -0.131413    1.316058   -0.424302
      2          6           0        1.263703    1.215701   -0.337699
      3          6           0        1.858836   -0.008676   -0.005071
      4          6           0        1.058852   -1.132696    0.240951
      5          6           0       -0.336264   -1.032339    0.154347
      6          6           0       -0.931397    0.192038   -0.178280
      7          1           0       -0.585811    2.250897   -0.678269
      8          1           0        1.874509    2.073915   -0.525543
      9          1           0        1.513249   -2.067535    0.494918
     10          1           0       -0.947070   -1.890554    0.342188
     11          6           0        3.391931   -0.118957    0.090101
     12          7           0        4.533390   -0.201068    0.160962
     13          7           0       -2.394806    0.297307   -0.269123
     14          6           0       -2.954302   -0.996910   -0.684896
     15          1           0       -2.694513   -1.745367    0.034285
     16          1           0       -4.019504   -0.920285   -0.751020
     17          1           0       -2.556140   -1.267126   -1.640589
     18          6           0       -2.941813    0.668539    1.043839
     19          1           0       -2.534561    1.610588    1.346476
     20          1           0       -4.007016    0.745163    0.977715
     21          1           0       -2.682024   -0.079919    1.763020
 ---------------------------------------------------------------------
 Rotational constants (GHZ):      3.4202353      0.5605821      0.5164084
 Standard basis: 6-31G (6D, 7F)
 There are   119 symmetry adapted basis functions of A   symmetry.
 Integral buffers will be    262144 words long.
 Raffenetti 2 integral format.
 Two-electron integral symmetry is turned on.
   119 basis functions,   282 primitive gaussians,   119 cartesian basis functions
    39 alpha electrons       39 beta electrons
       nuclear repulsion energy       545.8402255254 Hartrees.
 NAtoms=   21 NActive=   21 NUniq=   21 SFac= 7.50D-01 NAtFMM=   80 NAOKFM=F Big=F
 One-electron integrals computed using PRISM.
 NBasis=   119 RedAO= T  NBF=   119
 NBsUse=   119 1.00D-06 NBFU=   119
 Harris functional with IExCor=  402 diagonalized for initial guess.
 ExpMin= 1.61D-01 ExpMax= 4.17D+03 ExpMxC= 6.27D+02 IAcc=1 IRadAn=         1 AccDes= 0.00D+00
 HarFok:  IExCor=  402 AccDes= 0.00D+00 IRadAn=         1 IDoV= 1
 ScaDFX=  1.000000  1.000000  1.000000  1.000000
 FoFCou: FMM=F IPFlag=           0 FMFlag=      100000 FMFlg1=           0
         NFxFlg=           0 DoJE=T BraDBF=F KetDBF=T FulRan=T
         Omega=  0.000000  0.000000  1.000000  0.000000  0.000000 ICntrl=     500 IOpCl=  0
         NMat0=    1 NMatS0=    1 NMatT0=    0 NMatD0=    1 NMtDS0=    0 NMtDT0=    0
         I1Cent=           4 NGrid=           0.
 Petite list used in FoFCou.
 Initial guess orbital symmetries:
       Occupied  (A) (A) (A) (A) (A) (A) (A) (A) (A) (A) (A) (A)
                 (A) (A) (A) (A) (A) (A) (A) (A) (A) (A) (A) (A)
                 (A) (A) (A) (A) (A) (A) (A) (A) (A) (A) (A) (A)
                 (A) (A) (A)
       Virtual   (A) (A) (A) (A) (A) (A) (A) (A) (A) (A) (A) (A)
                 (A) (A) (A) (A) (A) (A) (A) (A) (A) (A) (A) (A)
                 (A) (A) (A) (A) (A) (A) (A) (A) (A) (A) (A) (A)
                 (A) (A) (A) (A) (A) (A) (A) (A) (A) (A) (A) (A)
                 (A) (A) (A) (A) (A) (A) (A) (A) (A) (A) (A) (A)
                 (A) (A) (A) (A) (A) (A) (A) (A) (A) (A) (A) (A)
                 (A) (A) (A) (A) (A) (A) (A) (A)
 The electronic state of the initial guess is 1-A.
 Requested convergence on RMS density matrix=1.00D-08 within 128 cycles.
 Requested convergence on MAX density matrix=1.00D-06.
 Requested convergence on             energy=1.00D-06.
 No special actions if energy rises.
 Keep R1 ints in memory in canonical form, NReq=26663856.
 Integral accuracy reduced to 1.0D-05 until final iterations.
 Initial convergence to 1.0D-05 achieved.  Increase integral accuracy.
 SCF Done:  E(RB3LYP) =  -458.310047517     A.U. after   16 cycles
             Convg  =    0.3156D-08             -V/T =  2.0051
 Range of M.O.s used for correlation:     1   119
 NBasis=   119 NAE=    39 NBE=    39 NFC=     0 NFV=     0
 NROrb=    119 NOA=    39 NOB=    39 NVA=    80 NVB=    80

 **** Warning!!: The largest alpha MO coefficient is  0.12707050D+02

 Symmetrizing basis deriv contribution to polar:
 IMax=3 JMax=2 DiffMx= 0.00D+00
 G2DrvN: will do    22 centers at a time, making    1 passes doing MaxLOS=1.
 Calling FoFCou, ICntrl=  3107 FMM=F I1Cent=   0 AccDes= 0.00D+00.
 FoFDir/FoFCou used for L=0 through L=1.
 End of G2Drv Frequency-dependent properties file   721 does not exist.
 End of G2Drv Frequency-dependent properties file   722 does not exist.
          IDoAtm=111111111111111111111
          Differentiating once with respect to electric field.
                with respect to dipole field.
          Differentiating once with respect to nuclear coordinates.
          Keep R1 ints in memory in canonical form, NReq=26297124.
          There are    66 degrees of freedom in the 1st order CPHF.  IDoFFX=5.
     63 vectors produced by pass  0 Test12= 4.73D-15 1.52D-09 XBig12= 1.83D+02 7.03D+00.
 AX will form    63 AO Fock derivatives at one time.
     63 vectors produced by pass  1 Test12= 4.73D-15 1.52D-09 XBig12= 4.39D+01 2.09D+00.
     63 vectors produced by pass  2 Test12= 4.73D-15 1.52D-09 XBig12= 3.08D-01 8.32D-02.
     63 vectors produced by pass  3 Test12= 4.73D-15 1.52D-09 XBig12= 6.72D-04 3.79D-03.
     63 vectors produced by pass  4 Test12= 4.73D-15 1.52D-09 XBig12= 6.14D-07 1.45D-04.
     31 vectors produced by pass  5 Test12= 4.73D-15 1.52D-09 XBig12= 3.85D-10 2.29D-06.
      3 vectors produced by pass  6 Test12= 4.73D-15 1.52D-09 XBig12= 2.96D-13 1.26D-07.
      1 vectors produced by pass  7 Test12= 4.73D-15 1.52D-09 XBig12= 3.00D-16 2.79D-09.
 Inverted reduced A of dimension   350 with in-core refinement.
 Isotropic polarizability for W=    0.000000      100.17 Bohr**3.
 End of Minotr Frequency-dependent properties file   721 does not exist.
 End of Minotr Frequency-dependent properties file   722 does not exist.

 **********************************************************************

            Population analysis using the SCF density.

 **********************************************************************

 Orbital symmetries:
       Occupied  (A) (A) (A) (A) (A) (A) (A) (A) (A) (A) (A) (A)
                 (A) (A) (A) (A) (A) (A) (A) (A) (A) (A) (A) (A)
                 (A) (A) (A) (A) (A) (A) (A) (A) (A) (A) (A) (A)
                 (A) (A) (A)
       Virtual   (A) (A) (A) (A) (A) (A) (A) (A) (A) (A) (A) (A)
                 (A) (A) (A) (A) (A) (A) (A) (A) (A) (A) (A) (A)
                 (A) (A) (A) (A) (A) (A) (A) (A) (A) (A) (A) (A)
                 (A) (A) (A) (A) (A) (A) (A) (A) (A) (A) (A) (A)
                 (A) (A) (A) (A) (A) (A) (A) (A) (A) (A) (A) (A)
                 (A) (A) (A) (A) (A) (A) (A) (A) (A) (A) (A) (A)
                 (A) (A) (A) (A) (A) (A) (A) (A)
 The electronic state is 1-A.
 Alpha  occ. eigenvalues --  -14.34731 -14.34308 -10.24711 -10.24047 -10.23221
 Alpha  occ. eigenvalues --  -10.21623 -10.21506 -10.20635 -10.20614 -10.20567
 Alpha  occ. eigenvalues --  -10.20399  -0.95375  -0.93518  -0.87622  -0.77613
 Alpha  occ. eigenvalues --   -0.77515  -0.72993  -0.67431  -0.63859  -0.60856
 Alpha  occ. eigenvalues --   -0.56621  -0.51051  -0.49816  -0.48019  -0.46896
 Alpha  occ. eigenvalues --   -0.45539  -0.44624  -0.43114  -0.41095  -0.39872
 Alpha  occ. eigenvalues --   -0.38695  -0.38140  -0.37410  -0.35073  -0.34929
 Alpha  occ. eigenvalues --   -0.34342  -0.27551  -0.27452  -0.22604
 Alpha virt. eigenvalues --   -0.03954  -0.02410   0.04123   0.07442   0.07476
 Alpha virt. eigenvalues --    0.09313   0.11580   0.13412   0.13782   0.14989
 Alpha virt. eigenvalues --    0.15428   0.15727   0.16119   0.17675   0.18963
 Alpha virt. eigenvalues --    0.19426   0.22301   0.23552   0.25229   0.29784
 Alpha virt. eigenvalues --    0.30570   0.32414   0.34328   0.39712   0.46898
 Alpha virt. eigenvalues --    0.49490   0.50232   0.52806   0.53178   0.53876
 Alpha virt. eigenvalues --    0.55949   0.56345   0.57507   0.58708   0.59391
 Alpha virt. eigenvalues --    0.59898   0.62307   0.63455   0.64013   0.64857
 Alpha virt. eigenvalues --    0.67461   0.68109   0.69565   0.70746   0.72555
 Alpha virt. eigenvalues --    0.76596   0.78908   0.80355   0.83107   0.83537
 Alpha virt. eigenvalues --    0.84926   0.85721   0.88438   0.89730   0.90678
 Alpha virt. eigenvalues --    0.91340   0.93816   0.94363   0.95736   0.96906
 Alpha virt. eigenvalues --    0.98809   1.00652   1.01291   1.02965   1.06519
 Alpha virt. eigenvalues --    1.09557   1.13326   1.14664   1.16246   1.18739
 Alpha virt. eigenvalues --    1.23951   1.25577   1.32402   1.42300   1.46490
 Alpha virt. eigenvalues --    1.47555   1.58954   1.71596   1.81607   1.95299
          Condensed to atoms (all electrons):
              1          2          3          4          5          6
     1  C    4.980837   0.496680  -0.049687  -0.035058  -0.092039   0.538837
     2  C    0.496680   4.935115   0.516629  -0.055961  -0.037409  -0.041860
     3  C   -0.049687   0.516629   4.924759   0.524295  -0.049432  -0.022804
     4  C   -0.035058  -0.055961   0.524295   4.945242   0.453593  -0.026194
     5  C   -0.092039  -0.037409  -0.049432   0.453593   5.145795   0.443586
     6  C    0.538837  -0.041860  -0.022804  -0.026194   0.443586   4.874344
     7  H    0.345865  -0.033600   0.004250   0.000251   0.006640  -0.029109
     8  H   -0.026844   0.354974  -0.037236   0.004161   0.000655   0.003974
     9  H    0.000678   0.004142  -0.035493   0.353580  -0.026419   0.002788
    10  H    0.003306   0.000860   0.003952  -0.027181   0.362562  -0.050592
    11  C    0.004743  -0.023106   0.180109  -0.022175   0.005589   0.000849
    12  N   -0.000012   0.000388  -0.037263   0.000346  -0.000014   0.000007
    13  N   -0.055246   0.004280   0.000180   0.006893  -0.090690   0.270975
    14  C    0.004268  -0.000167  -0.000053   0.001107  -0.004948  -0.062990
    15  H   -0.000825   0.000046  -0.000015  -0.000291   0.002117  -0.015885
    16  H   -0.000090   0.000001   0.000001  -0.000016   0.000288   0.006940
    17  H    0.000593  -0.000037  -0.000007  -0.000039  -0.000388  -0.000852
    18  C   -0.007996  -0.000121   0.000015   0.000036  -0.000984  -0.066589
    19  H    0.004254  -0.000176  -0.000006   0.000044  -0.000930  -0.002893
    20  H    0.000248  -0.000001   0.000000   0.000007  -0.000324   0.006663
    21  H   -0.000737   0.000088  -0.000026  -0.000587   0.009065  -0.004659
              7          8          9         10         11         12
     1  C    0.345865  -0.026844   0.000678   0.003306   0.004743  -0.000012
     2  C   -0.033600   0.354974   0.004142   0.000860  -0.023106   0.000388
     3  C    0.004250  -0.037236  -0.035493   0.003952   0.180109  -0.037263
     4  C    0.000251   0.004161   0.353580  -0.027181  -0.022175   0.000346
     5  C    0.006640   0.000655  -0.026419   0.362562   0.005589  -0.000014
     6  C   -0.029109   0.003974   0.002788  -0.050592   0.000849   0.000007
     7  H    0.563486  -0.004156   0.000014  -0.000154  -0.000164   0.000000
     8  H   -0.004156   0.553557  -0.000175   0.000012  -0.005177   0.000215
     9  H    0.000014  -0.000175   0.553937  -0.003558  -0.004945   0.000227
    10  H   -0.000154   0.000012  -0.003558   0.575497  -0.000185   0.000000
    11  C   -0.000164  -0.005177  -0.004945  -0.000185   4.964251   0.901379
    12  N    0.000000   0.000215   0.000227   0.000000   0.901379   6.369680
    13  N    0.000379  -0.000103  -0.000119  -0.012456  -0.000001   0.000000
    14  C    0.000082   0.000003   0.000020  -0.000851   0.000000   0.000000
    15  H    0.000048   0.000000   0.000045   0.008028   0.000000   0.000000
    16  H   -0.000014   0.000000   0.000000  -0.000052   0.000000   0.000000
    17  H   -0.000041   0.000000  -0.000006  -0.000324   0.000000   0.000000
    18  C    0.000279   0.000002   0.000000  -0.000121   0.000000   0.000000
    19  H    0.000205   0.000004   0.000000  -0.000038   0.000000   0.000000
    20  H   -0.000088   0.000000   0.000000  -0.000055   0.000000   0.000000
    21  H    0.000225   0.000000   0.000011   0.001461   0.000000   0.000000
             13         14         15         16         17         18
     1  C   -0.055246   0.004268  -0.000825  -0.000090   0.000593  -0.007996
     2  C    0.004280  -0.000167   0.000046   0.000001  -0.000037  -0.000121
     3  C    0.000180  -0.000053  -0.000015   0.000001  -0.000007   0.000015
     4  C    0.006893   0.001107  -0.000291  -0.000016  -0.000039   0.000036
     5  C   -0.090690  -0.004948   0.002117   0.000288  -0.000388  -0.000984
     6  C    0.270975  -0.062990  -0.015885   0.006940  -0.000852  -0.066589
     7  H    0.000379   0.000082   0.000048  -0.000014  -0.000041   0.000279
     8  H   -0.000103   0.000003   0.000000   0.000000   0.000000   0.000002
     9  H   -0.000119   0.000020   0.000045   0.000000  -0.000006   0.000000
    10  H   -0.012456  -0.000851   0.008028  -0.000052  -0.000324  -0.000121
    11  C   -0.000001   0.000000   0.000000   0.000000   0.000000   0.000000
    12  N    0.000000   0.000000   0.000000   0.000000   0.000000   0.000000
    13  N    7.079544   0.275761  -0.067185  -0.037575  -0.037949   0.285002
    14  C    0.275761   5.012310   0.354522   0.377416   0.383733  -0.071238
    15  H   -0.067185   0.354522   0.673908  -0.041551  -0.045962  -0.005226
    16  H   -0.037575   0.377416  -0.041551   0.569129  -0.023489  -0.003476
    17  H   -0.037949   0.383733  -0.045962  -0.023489   0.554245   0.006258
    18  C    0.285002  -0.071238  -0.005226  -0.003476   0.006258   5.019026
    19  H   -0.038620   0.006498  -0.000496   0.000140  -0.000258   0.379570
    20  H   -0.037667  -0.002859  -0.002060   0.004589   0.000132   0.375324
    21  H   -0.072692  -0.006702   0.017958  -0.001924  -0.000486   0.358736
             19         20         21
     1  C    0.004254   0.000248  -0.000737
     2  C   -0.000176  -0.000001   0.000088
     3  C   -0.000006   0.000000  -0.000026
     4  C    0.000044   0.000007  -0.000587
     5  C   -0.000930  -0.000324   0.009065
     6  C   -0.002893   0.006663  -0.004659
     7  H    0.000205  -0.000088   0.000225
     8  H    0.000004   0.000000   0.000000
     9  H    0.000000   0.000000   0.000011
    10  H   -0.000038  -0.000055   0.001461
    11  C    0.000000   0.000000   0.000000
    12  N    0.000000   0.000000   0.000000
    13  N   -0.038620  -0.037667  -0.072692
    14  C    0.006498  -0.002859  -0.006702
    15  H   -0.000496  -0.002060   0.017958
    16  H    0.000140   0.004589  -0.001924
    17  H   -0.000258   0.000132  -0.000486
    18  C    0.379570   0.375324   0.358736
    19  H    0.559643  -0.023578  -0.041199
    20  H   -0.023578   0.570088  -0.043978
    21  H   -0.041199  -0.043978   0.660285
 Mulliken atomic charges:
              1
     1  C   -0.111774
     2  C   -0.120765
     3  C    0.077834
     4  C   -0.122052
     5  C   -0.126311
     6  C    0.175464
     7  H    0.145604
     8  H    0.156135
     9  H    0.155271
    10  H    0.139888
    11  C   -0.001167
    12  N   -0.234953
    13  N   -0.472711
    14  C   -0.265910
    15  H    0.122824
    16  H    0.149683
    17  H    0.164876
    18  C   -0.268498
    19  H    0.157837
    20  H    0.153561
    21  H    0.125163
 Sum of Mulliken atomic charges =   0.00000
 Mulliken charges with hydrogens summed into heavy atoms:
              1
     1  C    0.033830
     2  C    0.035370
     3  C    0.077834
     4  C    0.033219
     5  C    0.013577
     6  C    0.175464
    11  C   -0.001167
    12  N   -0.234953
    13  N   -0.472711
    14  C    0.171473
    18  C    0.168063
 Sum of Mulliken charges with hydrogens summed into heavy atoms =   0.00000
 APT atomic charges:
              1
     1  C   -0.128536
     2  C    0.027020
     3  C    0.070496
     4  C    0.036696
     5  C   -0.177976
     6  C    0.382005
     7  H    0.053714
     8  H    0.053545
     9  H    0.049183
    10  H    0.059830
    11  C    0.129799
    12  N   -0.349397
    13  N   -0.632589
    14  C    0.229143
    15  H   -0.041568
    16  H   -0.004900
    17  H    0.015182
    18  C    0.277428
    19  H    0.018111
    20  H   -0.015081
    21  H   -0.052105
 Sum of APT charges=   0.00000
 APT Atomic charges with hydrogens summed into heavy atoms:
              1
     1  C   -0.074822
     2  C    0.080566
     3  C    0.070496
     4  C    0.085879
     5  C   -0.118146
     6  C    0.382005
     7  H    0.000000
     8  H    0.000000
     9  H    0.000000
    10  H    0.000000
    11  C    0.129799
    12  N   -0.349397
    13  N   -0.632589
    14  C    0.197858
    15  H    0.000000
    16  H    0.000000
    17  H    0.000000
    18  C    0.228352
    19  H    0.000000
    20  H    0.000000
    21  H    0.000000
 Sum of APT charges=   0.00000
 Electronic spatial extent (au):  <R**2>=           2152.3693
 Charge=              0.0000 electrons
 Dipole moment (field-independent basis, Debye):
    X=             -5.0699    Y=             -0.3901    Z=              0.5323  Tot=              5.1126
 Quadrupole moment (field-independent basis, Debye-Ang):
   XX=            -85.4905   YY=            -58.8602   ZZ=            -66.2908
   XY=              3.9994   XZ=             -3.3601   YZ=              0.0425
 Traceless Quadrupole moment (field-independent basis, Debye-Ang):
   XX=            -15.2767   YY=             11.3536   ZZ=              3.9230
   XY=              3.9994   XZ=             -3.3601   YZ=              0.0425
 Octapole moment (field-independent basis, Debye-Ang**2):
  XXX=           -166.2768  YYY=              2.7519  ZZZ=             -0.2323  XYY=              1.0941
  XXY=              2.0726  XXZ=              0.0884  XZZ=             -4.1293  YZZ=             -0.6380
  YYZ=              0.1046  XYZ=             -6.4716
 Hexadecapole moment (field-independent basis, Debye-Ang**3):
 XXXX=          -3009.9933 YYYY=           -362.9791 ZZZZ=           -176.0955 XXXY=             54.6143
 XXXZ=            -44.9491 YYYX=             -0.6702 YYYZ=             -8.9240 ZZZX=              1.8990
 ZZZY=              4.4454 XXYY=           -445.3017 XXZZ=           -421.8299 YYZZ=            -94.2713
 XXYZ=             12.5618 YYXZ=             -2.2388 ZZXY=              1.6930
 N-N= 5.458402255254D+02 E-N=-2.155128711481D+03  KE= 4.559788133708D+02
  Exact polarizability: 157.915  -0.276  90.206   1.741  -6.907  52.395
 Approx polarizability: 230.200  -3.515 148.723   6.816 -18.990  71.523
 Calling FoFJK, ICntrl=    100127 FMM=F ISym2X=0 I1Cent= 0 IOpClX= 0 NMat=1 NMatS=1 NMatT=0.
 Full mass-weighted force constant matrix:
 Low frequencies --- -396.0261 -330.0607 -198.8927 -190.9587 -153.6511 -101.5209
 Low frequencies ---  -69.6202  -22.0954   -0.0007
 ******    5 imaginary frequencies (negative Signs) ****** 
 Diagonal vibrational polarizability:
       20.8560785       7.6560708      15.2094774
 Harmonic frequencies (cm**-1), IR intensities (KM/Mole), Raman scattering
 activities (A**4/AMU), depolarization ratios for plane and unpolarized
 incident light, reduced masses (AMU), force constants (mDyne/A),
 and normal coordinates:
                     1                      2                      3
                     A                      A                      A
 Frequencies --  -393.0766              -325.5144              -193.8308
 Red. masses --     1.0204                 1.0665                 9.0470
 Frc consts  --     0.0929                 0.0666                 0.2003
 IR Inten    --     0.0356                 0.1950                 4.9218
  Atom  AN      X      Y      Z        X      Y      Z        X      Y      Z
     1   6     0.00  -0.01  -0.01     0.00  -0.01  -0.02    -0.09   0.07  -0.01
     2   6     0.00   0.00  -0.01     0.00   0.00  -0.02    -0.08   0.18  -0.03
     3   6     0.00   0.00   0.00     0.00   0.01   0.00     0.01   0.24  -0.05
     4   6     0.01   0.00   0.01     0.01   0.01   0.02     0.10   0.16  -0.04
     5   6     0.00   0.00   0.01     0.01   0.01   0.02     0.09   0.05  -0.02
     6   6     0.00  -0.01   0.01     0.00  -0.01  -0.01    -0.01   0.01   0.00
     7   1    -0.01  -0.01  -0.02     0.00  -0.01  -0.04    -0.17   0.03   0.00
     8   1     0.00   0.00  -0.02     0.00   0.00  -0.03    -0.16   0.23  -0.04
     9   1     0.01   0.01   0.02     0.01   0.02   0.04     0.18   0.20  -0.06
    10   1     0.01   0.00   0.02     0.03   0.00   0.06     0.16   0.00  -0.03
    11   6     0.00   0.01   0.00     0.00   0.01   0.00     0.02   0.27  -0.06
    12   7     0.00   0.01   0.00     0.00  -0.01   0.02    -0.06  -0.61   0.12
    13   7     0.01   0.00   0.00    -0.01  -0.01   0.01    -0.01  -0.07   0.01
    14   6     0.00   0.00   0.00    -0.02   0.01  -0.03     0.06  -0.12   0.06
    15   1     0.02   0.00  -0.01     0.40  -0.15  -0.37     0.07  -0.05   0.13
    16   1    -0.01   0.00   0.05    -0.06  -0.11   0.50     0.06  -0.18   0.01
    17   1    -0.04   0.01  -0.02    -0.45   0.32  -0.30     0.11  -0.16   0.10
    18   6    -0.01  -0.01  -0.01     0.01   0.00   0.02    -0.03  -0.06   0.00
    19   1     0.42  -0.28   0.26    -0.01   0.02  -0.02     0.00  -0.08   0.02
    20   1     0.04   0.54  -0.15     0.01  -0.03   0.04    -0.02  -0.02  -0.03
    21   1    -0.50  -0.30  -0.13     0.05   0.03   0.04    -0.07  -0.08  -0.01
                     4                      5                      6
                     A                      A                      A
 Frequencies --  -184.7490              -141.4214                59.2839
 Red. masses --     9.8018                 2.7139                 3.1332
 Frc consts  --     0.1971                 0.0320                 0.0065
 IR Inten    --     5.5437                 2.7764                 2.2926
  Atom  AN      X      Y      Z        X      Y      Z        X      Y      Z
     1   6     0.01   0.00   0.01     0.01   0.01  -0.09    -0.01  -0.01  -0.13
     2   6     0.00   0.03   0.16     0.02  -0.02  -0.13    -0.01   0.01  -0.01
     3   6    -0.01   0.07   0.31    -0.01  -0.01  -0.03    -0.03   0.03   0.09
     4   6    -0.01   0.05   0.22    -0.03   0.03   0.11    -0.03   0.01   0.01
     5   6     0.00   0.01   0.07    -0.03   0.07   0.15    -0.03  -0.01  -0.12
     6   6     0.01   0.00  -0.01     0.00   0.05   0.04    -0.01  -0.01  -0.16
     7   1     0.01  -0.03  -0.11     0.02  -0.01  -0.18     0.00  -0.02  -0.17
     8   1     0.00   0.03   0.18     0.04  -0.06  -0.24    -0.01   0.01   0.03
     9   1    -0.02   0.07   0.30    -0.04   0.05   0.21    -0.04   0.02   0.06
    10   1     0.00   0.01   0.04    -0.06   0.12   0.28    -0.03  -0.02  -0.18
    11   6    -0.01   0.06   0.30    -0.01  -0.02  -0.04    -0.03   0.04   0.15
    12   7     0.03  -0.13  -0.62    -0.01  -0.02   0.02    -0.03   0.00   0.03
    13   7     0.01  -0.02  -0.08    -0.01   0.06   0.03    -0.02   0.03  -0.06
    14   6     0.04  -0.02  -0.12     0.05   0.08  -0.15    -0.10   0.02   0.06
    15   1     0.07  -0.04  -0.16    -0.09   0.02  -0.16    -0.14   0.10   0.17
    16   1     0.04  -0.05  -0.11     0.07   0.09  -0.38    -0.09   0.08   0.06
    17   1     0.04   0.04  -0.13     0.26   0.15  -0.08    -0.12  -0.12   0.09
    18   6    -0.06  -0.02  -0.10    -0.01  -0.19   0.10     0.25  -0.08   0.11
    19   1    -0.10   0.00  -0.09    -0.09  -0.20   0.26     0.39  -0.16   0.14
    20   1    -0.06  -0.05  -0.17    -0.02  -0.28   0.15     0.24  -0.02   0.39
    21   1    -0.08  -0.01  -0.08     0.08  -0.30  -0.04     0.41  -0.21  -0.07
                     7                      8                      9
                     A                      A                      A
 Frequencies --   258.0380               280.2028               336.8761
 Red. masses --     2.9512                 3.9876                 3.8767
 Frc consts  --     0.1158                 0.1845                 0.2592
 IR Inten    --     3.5706                 1.2087                 0.4368
  Atom  AN      X      Y      Z        X      Y      Z        X      Y      Z
     1   6    -0.07  -0.10   0.02    -0.02   0.07   0.15     0.00  -0.04   0.07
     2   6    -0.08   0.00  -0.02    -0.03   0.05   0.15     0.01   0.00   0.06
     3   6    -0.02   0.04   0.00    -0.06  -0.02  -0.06     0.09   0.01  -0.01
     4   6     0.06  -0.03   0.03    -0.05   0.02   0.11     0.05   0.05   0.10
     5   6     0.04  -0.13   0.05    -0.04   0.05   0.15     0.01  -0.01   0.07
     6   6     0.02  -0.14   0.06     0.01   0.02  -0.04    -0.04  -0.05  -0.04
     7   1    -0.18  -0.16   0.00    -0.03   0.10   0.26     0.00  -0.03   0.12
     8   1    -0.13   0.03  -0.06    -0.01   0.06   0.26    -0.05   0.05   0.08
     9   1     0.15   0.02   0.03    -0.05   0.04   0.17     0.04   0.06   0.18
    10   1     0.03  -0.14   0.05    -0.06   0.10   0.28     0.01  -0.02   0.08
    11   6    -0.02   0.13  -0.03    -0.08  -0.08  -0.22     0.19   0.04  -0.13
    12   7    -0.03   0.00   0.00    -0.09   0.01  -0.01     0.18  -0.01   0.02
    13   7     0.06  -0.05   0.07     0.02  -0.02  -0.16    -0.07   0.03  -0.12
    14   6    -0.07   0.11  -0.15     0.07  -0.10  -0.05    -0.28   0.07   0.02
    15   1    -0.31  -0.06  -0.24     0.16  -0.02  -0.01    -0.39   0.15   0.15
    16   1    -0.04   0.31  -0.38     0.06  -0.18   0.02    -0.27   0.30   0.07
    17   1     0.08   0.20  -0.12     0.04  -0.13  -0.05    -0.40  -0.17   0.04
    18   6     0.11   0.13   0.02     0.21   0.00  -0.08    -0.06  -0.08  -0.07
    19   1     0.19   0.15  -0.16     0.40  -0.05  -0.15    -0.13  -0.09   0.04
    20   1     0.12   0.20   0.04     0.21   0.13   0.15    -0.07  -0.18  -0.03
    21   1     0.09   0.25   0.15     0.30  -0.02  -0.14     0.02  -0.16  -0.17
                    10                     11                     12
                     A                      A                      A
 Frequencies --   410.0136               416.2949               462.0673
 Red. masses --     3.3418                 2.6592                 3.4526
 Frc consts  --     0.3310                 0.2715                 0.4343
 IR Inten    --     0.3614                 1.3455                 7.4139
  Atom  AN      X      Y      Z        X      Y      Z        X      Y      Z
     1   6    -0.05   0.00  -0.07    -0.02   0.06   0.18     0.07   0.11  -0.06
     2   6    -0.03   0.00   0.06     0.00  -0.04  -0.17     0.08   0.10   0.02
     3   6     0.04  -0.01   0.00     0.01   0.00   0.00     0.00   0.04  -0.01
     4   6    -0.05   0.03  -0.08    -0.02   0.07   0.17     0.01   0.06   0.01
     5   6    -0.06   0.10   0.03    -0.01  -0.01  -0.19     0.04   0.08  -0.01
     6   6    -0.12   0.05  -0.03    -0.03   0.02  -0.01     0.08   0.05  -0.06
     7   1     0.03   0.04  -0.11     0.01   0.14   0.42     0.09   0.13  -0.03
     8   1    -0.07   0.05   0.17     0.01  -0.10  -0.43     0.13   0.08   0.12
     9   1    -0.13  -0.02  -0.14    -0.07   0.13   0.47     0.02   0.08   0.09
    10   1    -0.05   0.12   0.17     0.02  -0.07  -0.40    -0.08   0.19   0.09
    11   6     0.17  -0.06   0.04     0.03  -0.04   0.00    -0.08  -0.15   0.01
    12   7     0.19  -0.01   0.01     0.03   0.00   0.00    -0.07   0.01   0.00
    13   7    -0.15  -0.09   0.06    -0.03  -0.04   0.03     0.10  -0.23   0.13
    14   6     0.00  -0.12  -0.10     0.01  -0.04  -0.03    -0.16  -0.05  -0.02
    15   1    -0.02  -0.21  -0.19     0.00  -0.08  -0.07    -0.47  -0.27  -0.13
    16   1     0.00  -0.25  -0.33     0.01  -0.07  -0.09    -0.13   0.37  -0.08
    17   1     0.24   0.09  -0.07     0.06   0.03  -0.03    -0.24  -0.04  -0.06
    18   6     0.03   0.09   0.08     0.01   0.02   0.02     0.00  -0.05  -0.01
    19   1     0.28   0.07  -0.16     0.08   0.02  -0.06    -0.03   0.01  -0.13
    20   1     0.03   0.31   0.27     0.02   0.09   0.07     0.01  -0.01  -0.19
    21   1     0.04   0.19   0.18     0.01   0.06   0.06    -0.16   0.09   0.19
                    13                     14                     15
                     A                      A                      A
 Frequencies --   496.8025               522.8322               565.3942
 Red. masses --     4.9989                 4.8758                 2.0133
 Frc consts  --     0.7269                 0.7853                 0.3792
 IR Inten    --     0.0752                 1.0093                31.3131
  Atom  AN      X      Y      Z        X      Y      Z        X      Y      Z
     1   6     0.00   0.07   0.19     0.10   0.07   0.00     0.02   0.03   0.01
     2   6     0.02  -0.02  -0.21     0.06  -0.19   0.04     0.02  -0.02   0.00
     3   6     0.01  -0.02  -0.17     0.00  -0.19  -0.02    -0.01   0.02   0.19
     4   6     0.00  -0.02  -0.20    -0.05  -0.18   0.03    -0.01  -0.02   0.00
     5   6    -0.02   0.06   0.18    -0.04   0.08  -0.03    -0.01   0.03   0.01
     6   6     0.00   0.04   0.17     0.02   0.10  -0.09     0.00   0.07   0.15
     7   1    -0.01   0.09   0.29     0.30   0.22   0.17     0.07  -0.06  -0.42
     8   1     0.02  -0.05  -0.34     0.22  -0.26   0.22     0.07  -0.16  -0.46
     9   1     0.01  -0.05  -0.33    -0.23  -0.22   0.22    -0.03  -0.15  -0.46
    10   1    -0.05   0.09   0.26    -0.20   0.24   0.15    -0.01  -0.06  -0.43
    11   6    -0.01   0.04   0.31     0.00   0.43  -0.05     0.01   0.02  -0.12
    12   7     0.01  -0.01  -0.04    -0.04  -0.03   0.00    -0.01   0.00   0.02
    13   7     0.01  -0.03  -0.10     0.00  -0.06   0.05    -0.01  -0.03  -0.03
    14   6    -0.10  -0.04  -0.02    -0.03  -0.04  -0.01    -0.04  -0.04  -0.03
    15   1    -0.14  -0.01   0.03    -0.10  -0.12  -0.07    -0.06  -0.04  -0.02
    16   1    -0.10   0.11   0.08    -0.02   0.04  -0.03    -0.04   0.03   0.01
    17   1    -0.22  -0.17  -0.03    -0.04   0.01  -0.03    -0.09  -0.06  -0.04
    18   6     0.09  -0.04  -0.08    -0.01   0.01   0.01     0.03  -0.01  -0.03
    19   1     0.17  -0.07  -0.11     0.01   0.02  -0.04     0.10  -0.03  -0.08
    20   1     0.08  -0.01   0.08     0.00   0.05  -0.02     0.03   0.03   0.06
    21   1     0.18  -0.06  -0.13    -0.06   0.06   0.09     0.07   0.00  -0.03
                    16                     17                     18
                     A                      A                      A
 Frequencies --   605.5349               674.0989               764.3981
 Red. masses --     5.1495                 7.1545                 2.8893
 Frc consts  --     1.1125                 1.9155                 0.9947
 IR Inten    --    13.7173                 0.2051                 1.7992
  Atom  AN      X      Y      Z        X      Y      Z        X      Y      Z
     1   6     0.18  -0.11   0.04    -0.25   0.19  -0.05     0.00  -0.02   0.09
     2   6     0.20  -0.01   0.01    -0.28  -0.17   0.02     0.00  -0.04  -0.11
     3   6     0.15   0.02  -0.02     0.03  -0.09   0.03     0.01   0.07   0.26
     4   6     0.17   0.06   0.00     0.33  -0.19   0.06     0.01  -0.01  -0.12
     5   6     0.13   0.00   0.02     0.34   0.18  -0.01     0.00   0.02   0.07
     6   6    -0.02  -0.03   0.00     0.00   0.10  -0.03    -0.01  -0.06  -0.22
     7   1     0.27  -0.05   0.07    -0.13   0.25  -0.06     0.00   0.11   0.52
     8   1     0.16   0.03   0.05    -0.22  -0.22   0.01    -0.03  -0.06  -0.30
     9   1     0.21   0.08  -0.02     0.25  -0.24   0.01     0.02  -0.05  -0.28
    10   1     0.24  -0.09   0.00     0.25   0.23  -0.07    -0.02   0.14   0.57
    11   6    -0.17   0.01   0.00    -0.04  -0.13   0.04     0.00  -0.02  -0.06
    12   7    -0.20   0.02  -0.02    -0.03   0.01   0.00    -0.01   0.00   0.01
    13   7    -0.25   0.07  -0.06    -0.04   0.03  -0.03     0.01   0.00   0.02
    14   6    -0.12  -0.09  -0.08    -0.04   0.04  -0.01     0.01   0.02   0.02
    15   1     0.01   0.01  -0.01    -0.02   0.09   0.04     0.03   0.01  -0.01
    16   1    -0.13  -0.34  -0.25    -0.04   0.02  -0.06     0.01  -0.01  -0.02
    17   1     0.11  -0.03   0.00     0.01   0.00   0.02     0.06   0.05   0.03
    18   6    -0.09   0.07   0.10    -0.01   0.01   0.00    -0.01   0.01   0.01
    19   1     0.11   0.02  -0.01     0.01   0.00   0.02    -0.07   0.02   0.05
    20   1    -0.09   0.18   0.38    -0.02   0.01   0.06    -0.01  -0.03  -0.09
    21   1     0.06   0.06   0.03     0.03  -0.02  -0.04    -0.07   0.00   0.03
                    19                     20                     21
                     A                      A                      A
 Frequencies --   782.3347               801.9004               846.4317
 Red. masses --     5.7097                 1.2662                 2.1573
 Frc consts  --     2.0590                 0.4797                 0.9106
 IR Inten    --     1.7421                 0.5257                36.1696
  Atom  AN      X      Y      Z        X      Y      Z        X      Y      Z
     1   6     0.03   0.26  -0.05     0.00   0.01   0.07     0.00  -0.03  -0.10
     2   6     0.07   0.24  -0.08     0.00   0.01   0.08    -0.01  -0.03  -0.08
     3   6    -0.23   0.02   0.04     0.01   0.00   0.00     0.00   0.03   0.12
     4   6     0.03  -0.27   0.04     0.01  -0.01  -0.07     0.01  -0.01  -0.08
     5   6    -0.01  -0.24   0.04     0.01  -0.01  -0.08     0.01  -0.01  -0.10
     6   6     0.18  -0.02  -0.01     0.00   0.00   0.01    -0.01   0.05   0.21
     7   1    -0.24   0.16   0.05     0.01  -0.14  -0.50    -0.01   0.10   0.41
     8   1     0.35   0.05  -0.04     0.01  -0.11  -0.46    -0.05   0.12   0.50
     9   1     0.32  -0.13   0.08    -0.03   0.12   0.47    -0.03   0.12   0.48
    10   1    -0.22  -0.06   0.18    -0.03   0.13   0.48    -0.03   0.12   0.37
    11   6     0.07  -0.01  -0.01     0.00   0.00   0.00     0.00  -0.01  -0.05
    12   7     0.09  -0.01   0.01     0.00   0.00   0.00     0.00   0.00   0.01
    13   7    -0.09   0.07  -0.06     0.00   0.00  -0.01     0.00   0.01  -0.02
    14   6    -0.06  -0.09  -0.05     0.00   0.00   0.00    -0.01  -0.02  -0.01
    15   1     0.03  -0.02  -0.02     0.00   0.00   0.00    -0.02   0.01   0.01
    16   1    -0.08  -0.26  -0.06     0.00   0.00   0.00    -0.01   0.05   0.04
    17   1     0.01  -0.08  -0.02     0.00  -0.02   0.01    -0.05  -0.06  -0.01
    18   6    -0.07   0.05   0.10     0.00   0.00   0.00     0.02  -0.01  -0.05
    19   1     0.00   0.03   0.07     0.00   0.00   0.00     0.08  -0.03  -0.07
    20   1    -0.08   0.09   0.21     0.00   0.00   0.01     0.01   0.01   0.09
    21   1     0.00   0.03   0.04     0.01   0.00  -0.01     0.09  -0.01  -0.07
                    22                     23                     24
                     A                      A                      A
 Frequencies --   948.1584               952.3885               958.0885
 Red. masses --     2.4525                 1.6978                 1.5700
 Frc consts  --     1.2991                 0.9074                 0.8491
 IR Inten    --    26.7237                10.3756                 1.7768
  Atom  AN      X      Y      Z        X      Y      Z        X      Y      Z
     1   6     0.01   0.02  -0.07     0.00  -0.02  -0.03     0.00  -0.04  -0.12
     2   6     0.04   0.06   0.07    -0.02  -0.01   0.03    -0.02   0.02   0.13
     3   6    -0.01   0.00   0.00     0.00   0.01   0.03     0.00  -0.01  -0.05
     4   6     0.03  -0.06  -0.06    -0.01  -0.01  -0.13    -0.01   0.03   0.05
     5   6     0.00  -0.02   0.08    -0.01   0.04   0.12     0.00  -0.01  -0.05
     6   6    -0.05   0.00  -0.01     0.02  -0.01  -0.03     0.01   0.01   0.05
     7   1     0.05   0.15   0.30    -0.02   0.03   0.18    -0.01   0.15   0.60
     8   1     0.12  -0.09  -0.37    -0.03  -0.05  -0.16    -0.01  -0.16  -0.62
     9   1     0.06   0.07   0.34    -0.07   0.16   0.62     0.00  -0.05  -0.25
    10   1     0.05  -0.15  -0.28     0.05  -0.15  -0.59    -0.03   0.08   0.22
    11   6     0.00   0.00   0.00     0.00   0.00  -0.01     0.00   0.00   0.02
    12   7     0.00   0.00   0.00     0.00   0.00   0.00     0.00   0.00   0.00
    13   7    -0.13  -0.08   0.07     0.06   0.03  -0.03     0.03   0.03  -0.02
    14   6     0.03   0.16   0.09    -0.01  -0.07  -0.05    -0.01  -0.04  -0.03
    15   1     0.08   0.08   0.00    -0.04  -0.02   0.01    -0.03  -0.02   0.00
    16   1     0.02  -0.07  -0.04    -0.01   0.03   0.02    -0.01   0.03   0.02
    17   1     0.18   0.33   0.11    -0.09  -0.15  -0.06    -0.06  -0.10  -0.03
    18   6     0.02  -0.09  -0.16    -0.01   0.05   0.08     0.00   0.02   0.03
    19   1     0.19  -0.10  -0.36    -0.10   0.06   0.17    -0.03   0.02   0.08
    20   1     0.02   0.06   0.08    -0.01  -0.02  -0.06     0.00  -0.01   0.01
    21   1     0.09   0.03  -0.04    -0.05  -0.01   0.03     0.00  -0.01  -0.01
                    25                     26                     27
                     A                      A                      A
 Frequencies --  1022.7036              1050.7868              1084.7177
 Red. masses --     1.5856                 2.9104                 1.2911
 Frc consts  --     0.9771                 1.8933                 0.8950
 IR Inten    --     9.7309                 3.6678                 8.9724
  Atom  AN      X      Y      Z        X      Y      Z        X      Y      Z
     1   6     0.00  -0.01   0.00    -0.03   0.21  -0.05     0.00   0.00   0.00
     2   6     0.00   0.00   0.00    -0.05  -0.17   0.03     0.00   0.01   0.00
     3   6     0.00   0.00   0.00     0.09   0.01   0.00     0.03   0.01   0.00
     4   6     0.00   0.00   0.00     0.00   0.17  -0.04     0.02  -0.02   0.00
     5   6     0.00   0.00   0.00    -0.07  -0.22   0.05    -0.02  -0.01   0.00
     6   6     0.00   0.00  -0.02     0.00   0.01   0.00    -0.02   0.01  -0.01
     7   1     0.00  -0.01   0.00     0.40   0.40  -0.12     0.04   0.02  -0.01
     8   1    -0.02   0.01  -0.01     0.13  -0.29   0.11    -0.06   0.06  -0.01
     9   1     0.01   0.00  -0.02     0.30   0.31  -0.08     0.04  -0.01   0.00
    10   1    -0.03   0.02   0.02     0.15  -0.36   0.15    -0.07   0.02  -0.03
    11   6     0.00   0.00   0.00    -0.01   0.00   0.00     0.00   0.00   0.00
    12   7     0.00   0.00   0.00    -0.01   0.00   0.00     0.00   0.00   0.00
    13   7     0.00  -0.06  -0.06     0.01   0.00   0.00     0.01  -0.03  -0.02
    14   6     0.12   0.07  -0.03     0.00   0.00  -0.01     0.05  -0.03   0.08
    15   1    -0.11   0.13   0.13     0.01   0.02   0.01    -0.20  -0.39  -0.21
    16   1     0.13   0.42   0.24     0.00   0.01   0.01     0.08   0.31  -0.09
    17   1    -0.25  -0.34  -0.07    -0.01  -0.03  -0.01    -0.01   0.31  -0.04
    18   6    -0.13  -0.03   0.08    -0.01   0.01   0.01    -0.05   0.09  -0.03
    19   1     0.24  -0.05  -0.33     0.00   0.00   0.02     0.02  -0.07   0.33
    20   1    -0.13   0.22   0.42    -0.01  -0.01   0.02    -0.09  -0.11   0.32
    21   1     0.11   0.13   0.14     0.01  -0.01  -0.01     0.23  -0.21  -0.44
                    28                     29                     30
                     A                      A                      A
 Frequencies --  1107.2309              1132.9076              1157.4443
 Red. masses --     3.3091                 1.6512                 2.1011
 Frc consts  --     2.3902                 1.2486                 1.6584
 IR Inten    --     2.4154                12.7142                36.8320
  Atom  AN      X      Y      Z        X      Y      Z        X      Y      Z
     1   6    -0.13   0.12  -0.04     0.04  -0.03   0.01     0.04  -0.01   0.01
     2   6     0.07   0.10  -0.02    -0.02   0.04  -0.01    -0.10  -0.06   0.01
     3   6     0.36  -0.05   0.03     0.03   0.05  -0.01     0.07   0.02   0.00
     4   6    -0.01  -0.08   0.02     0.07  -0.11   0.03    -0.02   0.03  -0.01
     5   6    -0.09  -0.07   0.01    -0.07  -0.04   0.01    -0.04  -0.01   0.01
     6   6    -0.04  -0.01   0.01    -0.12   0.07  -0.01     0.23   0.01   0.00
     7   1    -0.55  -0.06   0.02     0.56   0.20  -0.06    -0.01  -0.04   0.01
     8   1    -0.07   0.22  -0.06    -0.43   0.32  -0.09    -0.45   0.17  -0.07
     9   1    -0.51  -0.33   0.05     0.32   0.00   0.02    -0.01   0.04   0.00
    10   1    -0.09  -0.08   0.02    -0.21   0.04  -0.03    -0.39   0.22  -0.14
    11   6    -0.03   0.01   0.00    -0.01  -0.01   0.00     0.00  -0.01   0.00
    12   7    -0.06   0.00   0.00    -0.01   0.00   0.00    -0.01   0.00   0.00
    13   7     0.01   0.00   0.00    -0.01   0.03   0.02    -0.03   0.06  -0.05
    14   6     0.01   0.00  -0.02     0.04  -0.03  -0.02    -0.02  -0.02   0.08
    15   1     0.02   0.06   0.04    -0.06   0.01   0.04    -0.08  -0.26  -0.16
    16   1     0.01  -0.01   0.06     0.04   0.12   0.10    -0.01  -0.06  -0.14
    17   1    -0.03  -0.09  -0.01    -0.09  -0.12  -0.05     0.10   0.32   0.03
    18   6     0.02   0.00   0.01     0.05  -0.02   0.01    -0.03  -0.08   0.01
    19   1    -0.04   0.02   0.02    -0.07   0.04  -0.01     0.08  -0.02  -0.32
    20   1     0.02  -0.02  -0.09     0.07  -0.02  -0.23    -0.02   0.17   0.03
    21   1    -0.04   0.01   0.04    -0.10   0.03   0.10    -0.05   0.14   0.23
                    31                     32                     33
                     A                      A                      A
 Frequencies --  1173.8874              1213.0305              1227.8529
 Red. masses --     1.5158                 2.6117                 1.4209
 Frc consts  --     1.2307                 2.2642                 1.2622
 IR Inten    --     2.5091                15.0928                 4.2538
  Atom  AN      X      Y      Z        X      Y      Z        X      Y      Z
     1   6     0.04   0.00   0.00    -0.03  -0.03   0.01    -0.02  -0.01   0.00
     2   6    -0.05   0.00   0.00     0.02  -0.04   0.01     0.02  -0.03   0.01
     3   6     0.02   0.01   0.00     0.02   0.01   0.00     0.03   0.00   0.00
     4   6    -0.02  -0.01   0.00     0.03   0.01   0.00     0.05   0.01   0.00
     5   6    -0.01   0.00   0.01    -0.05   0.00   0.01    -0.08   0.03  -0.01
     6   6     0.06  -0.01  -0.01     0.01   0.04  -0.06     0.00   0.01   0.02
     7   1     0.19   0.06  -0.02    -0.44  -0.23   0.01    -0.29  -0.14   0.04
     8   1    -0.31   0.17  -0.05     0.19  -0.16   0.03     0.19  -0.14   0.05
     9   1    -0.08  -0.04   0.00     0.40   0.18  -0.02     0.54   0.23  -0.02
    10   1    -0.11   0.07  -0.05    -0.22   0.10  -0.10    -0.48   0.29  -0.11
    11   6     0.00   0.00   0.00     0.00   0.00   0.00     0.00   0.00   0.00
    12   7     0.00   0.00   0.00     0.00   0.00   0.00    -0.01   0.00   0.00
    13   7     0.06  -0.06   0.08     0.00   0.17   0.20    -0.02  -0.10  -0.05
    14   6    -0.06   0.05  -0.07     0.01  -0.14  -0.07     0.02   0.08   0.00
    15   1     0.20   0.31   0.13    -0.14  -0.01   0.10     0.03   0.07   0.01
    16   1    -0.11  -0.46   0.07     0.02   0.19   0.15    -0.01  -0.21   0.06
    17   1     0.08  -0.21   0.06    -0.16  -0.20  -0.11     0.03  -0.05   0.04
    18   6    -0.06   0.05  -0.05    -0.01  -0.04  -0.15     0.02   0.04   0.05
    19   1     0.10  -0.08   0.16     0.12  -0.11  -0.09    -0.09   0.05   0.15
    20   1    -0.09  -0.05   0.38    -0.02   0.08   0.25     0.02  -0.09  -0.11
    21   1     0.21  -0.08  -0.27     0.15   0.06  -0.08    -0.07  -0.07  -0.03
                    34                     35                     36
                     A                      A                      A
 Frequencies --  1280.6342              1351.8819              1365.9960
 Red. masses --     2.6472                 1.3542                 7.8591
 Frc consts  --     2.5579                 1.4582                 8.6401
 IR Inten    --    17.1738                 0.3625                 2.0068
  Atom  AN      X      Y      Z        X      Y      Z        X      Y      Z
     1   6    -0.03  -0.01   0.00    -0.03  -0.01   0.00    -0.31  -0.15   0.03
     2   6     0.04   0.03  -0.01    -0.05   0.04  -0.01     0.24  -0.16   0.05
     3   6     0.01  -0.01   0.00     0.02   0.06  -0.01     0.04   0.36  -0.09
     4   6     0.04  -0.04   0.01     0.07   0.02   0.00    -0.27  -0.13   0.02
     5   6    -0.06   0.02  -0.01    -0.01   0.01   0.00     0.27  -0.18   0.05
     6   6    -0.16   0.02  -0.01    -0.01  -0.12   0.02     0.04   0.27  -0.05
     7   1    -0.02   0.01   0.01     0.40   0.18  -0.04     0.26   0.11  -0.01
     8   1     0.16  -0.05   0.02     0.47  -0.30   0.10     0.17  -0.11   0.04
     9   1     0.29   0.07   0.00    -0.37  -0.19   0.03    -0.11  -0.05   0.01
    10   1     0.04  -0.05   0.02    -0.41   0.27  -0.11    -0.33   0.22  -0.09
    11   6     0.00   0.00   0.00     0.00  -0.01   0.00     0.00  -0.02   0.01
    12   7     0.00   0.00   0.00     0.00   0.00   0.00     0.00   0.01   0.00
    13   7     0.24   0.05  -0.06     0.01   0.04   0.01     0.03  -0.02  -0.02
    14   6    -0.11  -0.03   0.06     0.01  -0.01   0.00    -0.02   0.03   0.01
    15   1     0.23  -0.06  -0.13    -0.08  -0.04   0.00    -0.03  -0.07  -0.08
    16   1    -0.10  -0.26  -0.22     0.01  -0.07   0.06    -0.04  -0.23  -0.05
    17   1     0.26   0.31   0.11    -0.01  -0.01  -0.01    -0.02  -0.06   0.03
    18   6    -0.11  -0.07   0.05     0.00  -0.01  -0.01    -0.01   0.01   0.01
    19   1     0.26  -0.09  -0.36     0.02  -0.01  -0.03     0.02  -0.01   0.00
    20   1    -0.08   0.23   0.15     0.00   0.02   0.00    -0.01  -0.02   0.03
    21   1     0.23   0.13   0.12     0.03   0.01   0.00    -0.02  -0.01   0.00
                    37                     38                     39
                     A                      A                      A
 Frequencies --  1439.3076              1441.7349              1462.2852
 Red. masses --     2.9129                 1.1306                 1.1633
 Frc consts  --     3.5554                 1.3846                 1.4656
 IR Inten    --     1.0831                 3.5879                 1.9172
  Atom  AN      X      Y      Z        X      Y      Z        X      Y      Z
     1   6     0.16  -0.04   0.02     0.01   0.01   0.00     0.01   0.00   0.00
     2   6    -0.14  -0.06   0.01     0.00   0.00   0.00     0.00  -0.01   0.00
     3   6     0.01   0.20  -0.05    -0.01  -0.01   0.00     0.00   0.01   0.00
     4   6     0.13  -0.05   0.02     0.01   0.01   0.00    -0.01   0.00   0.00
     5   6    -0.13  -0.05   0.01     0.01  -0.01   0.00     0.01  -0.01   0.00
     6   6     0.01   0.19  -0.04    -0.01   0.00   0.00     0.01   0.00   0.00
     7   1    -0.36  -0.30   0.07    -0.04  -0.01   0.01    -0.02  -0.01   0.01
     8   1     0.23  -0.33   0.09    -0.04   0.02  -0.01    -0.01  -0.01   0.00
     9   1    -0.40  -0.32   0.06    -0.02   0.00   0.00    -0.02   0.00   0.00
    10   1     0.22  -0.30   0.10     0.03  -0.02   0.01    -0.08   0.05  -0.01
    11   6     0.00  -0.03   0.01     0.00   0.00   0.00     0.00   0.00   0.00
    12   7     0.00   0.00   0.00     0.00   0.00   0.00     0.00   0.00   0.00
    13   7     0.00  -0.05  -0.01    -0.01   0.03   0.04    -0.02  -0.02   0.01
    14   6    -0.02   0.01   0.00     0.03   0.05   0.02    -0.03  -0.06  -0.04
    15   1     0.09   0.01  -0.04    -0.17  -0.25  -0.20     0.09   0.28   0.27
    16   1    -0.01   0.00  -0.04     0.00  -0.31  -0.17    -0.01   0.30   0.26
    17   1     0.02  -0.04   0.03    -0.27  -0.34  -0.01     0.29   0.37  -0.02
    18   6     0.00   0.01   0.01    -0.03   0.02   0.05    -0.03   0.04   0.06
    19   1    -0.02   0.02   0.01     0.29   0.00  -0.33     0.27   0.01  -0.30
    20   1     0.00   0.00  -0.01     0.00  -0.15  -0.40    -0.01  -0.21  -0.34
    21   1    -0.02  -0.02  -0.01     0.21  -0.20  -0.28     0.13  -0.20  -0.25
                    40                     41                     42
                     A                      A                      A
 Frequencies --  1504.1286              1508.3913              1518.0556
 Red. masses --     1.0460                 1.0885                 1.0470
 Frc consts  --     1.3942                 1.4592                 1.4215
 IR Inten    --     6.6224                 9.9463                33.9735
  Atom  AN      X      Y      Z        X      Y      Z        X      Y      Z
     1   6     0.00   0.00   0.00    -0.02  -0.02   0.00     0.00   0.00   0.00
     2   6     0.00   0.00   0.00    -0.01   0.02  -0.01     0.00   0.00   0.00
     3   6     0.00   0.01   0.00     0.02   0.00   0.00     0.01   0.00   0.00
     4   6     0.00  -0.01   0.00    -0.01  -0.02   0.00    -0.01   0.00   0.00
     5   6    -0.01   0.01   0.00    -0.02   0.02  -0.01     0.00   0.00   0.00
     6   6     0.00   0.00   0.00     0.02  -0.01   0.00     0.00   0.00   0.00
     7   1     0.01   0.00   0.00     0.08   0.03   0.00     0.01   0.00   0.00
     8   1     0.02  -0.01   0.00     0.08  -0.04   0.01     0.01  -0.01   0.00
     9   1     0.02   0.00   0.00     0.09   0.03   0.00     0.02   0.00   0.00
    10   1     0.01   0.00   0.01     0.06  -0.03   0.00     0.00   0.01   0.01
    11   6     0.00   0.00   0.00     0.00   0.00   0.00     0.00   0.00   0.00
    12   7     0.00   0.00   0.00     0.00   0.00   0.00     0.00   0.00   0.00
    13   7     0.00  -0.01  -0.01     0.01   0.01   0.01     0.01  -0.01   0.01
    14   6     0.03  -0.02   0.02    -0.02  -0.01   0.02     0.03  -0.02   0.01
    15   1    -0.01   0.22   0.25     0.22   0.00  -0.07    -0.08   0.23   0.29
    16   1     0.03  -0.09  -0.35     0.01   0.11  -0.17     0.03  -0.14  -0.29
    17   1    -0.38   0.23  -0.22    -0.05  -0.09   0.02    -0.37   0.27  -0.23
    18   6    -0.02   0.02  -0.02     0.04   0.04   0.00     0.02  -0.02   0.02
    19   1     0.37  -0.23   0.23     0.08   0.11  -0.35    -0.37   0.23  -0.22
    20   1    -0.04  -0.35  -0.08    -0.04  -0.42   0.37     0.03   0.35   0.08
    21   1    -0.01   0.26   0.25    -0.58  -0.24  -0.05     0.03  -0.25  -0.24
                    43                     44                     45
                     A                      A                      A
 Frequencies --  1536.1802              1555.9406              1630.7138
 Red. masses --     1.5453                 1.2682                 5.7448
 Frc consts  --     2.1486                 1.8090                 9.0008
 IR Inten    --    44.4086                15.8965                28.8219
  Atom  AN      X      Y      Z        X      Y      Z        X      Y      Z
     1   6    -0.04  -0.05   0.01     0.03   0.05  -0.01     0.17  -0.07   0.02
     2   6    -0.06   0.06  -0.02     0.05  -0.05   0.02    -0.26   0.20  -0.06
     3   6     0.08   0.01   0.00    -0.05   0.01  -0.01     0.10  -0.22   0.06
     4   6    -0.08  -0.06   0.01     0.05   0.04  -0.01    -0.15   0.09  -0.03
     5   6    -0.04   0.06  -0.02     0.03  -0.04   0.01     0.28  -0.21   0.07
     6   6     0.09  -0.01   0.00    -0.05  -0.03   0.00    -0.14   0.21  -0.05
     7   1     0.23   0.06  -0.01    -0.14  -0.02   0.00    -0.05  -0.19   0.05
     8   1     0.26  -0.15   0.05    -0.18   0.10  -0.03     0.34  -0.19   0.06
     9   1     0.28   0.10  -0.01    -0.19  -0.06   0.01     0.03   0.19  -0.05
    10   1     0.23  -0.11   0.04    -0.32   0.19  -0.08    -0.47   0.29  -0.10
    11   6     0.00   0.00   0.00     0.00   0.00   0.00     0.00   0.02   0.00
    12   7     0.00   0.00   0.00     0.00   0.00   0.00     0.00   0.00   0.00
    13   7    -0.04  -0.02   0.02    -0.01  -0.01   0.01     0.01  -0.01  -0.01
    14   6    -0.02   0.00   0.02    -0.03  -0.01   0.03    -0.01   0.00   0.01
    15   1     0.44   0.05  -0.11     0.60   0.09  -0.12     0.08   0.01  -0.03
    16   1     0.03   0.31  -0.25     0.04   0.35  -0.38     0.00   0.01  -0.06
    17   1    -0.04  -0.20   0.05    -0.11  -0.20   0.03    -0.02  -0.01   0.01
    18   6    -0.02  -0.01   0.01     0.00   0.00   0.00     0.01   0.00   0.00
    19   1    -0.04  -0.03   0.13    -0.04   0.01   0.02     0.00  -0.01   0.01
    20   1     0.02   0.20  -0.25     0.01   0.07  -0.05     0.01  -0.03   0.03
    21   1     0.33   0.04  -0.07     0.07  -0.01  -0.03    -0.06   0.02   0.05
                    46                     47                     48
                     A                      A                      A
 Frequencies --  1637.8959              2444.7846              3251.3287
 Red. masses --     7.0450                12.7684                 1.0313
 Frc consts  --    11.1354                44.9643                 6.4236
 IR Inten    --    21.2341                20.8758                39.8213
  Atom  AN      X      Y      Z        X      Y      Z        X      Y      Z
     1   6     0.30   0.22  -0.04     0.01   0.00   0.00     0.00   0.00   0.00
     2   6    -0.11  -0.12   0.02    -0.01   0.00   0.00     0.00   0.00   0.00
     3   6     0.13   0.27  -0.06    -0.04   0.00   0.00     0.00   0.00   0.00
     4   6    -0.30  -0.20   0.04    -0.01   0.00   0.00     0.00   0.00   0.00
     5   6     0.15   0.11  -0.02     0.01   0.00   0.00     0.00   0.00   0.00
     6   6    -0.19  -0.30   0.06     0.00   0.00   0.00     0.00   0.00   0.00
     7   1    -0.40  -0.09   0.01     0.00   0.00   0.00     0.00   0.00   0.00
     8   1    -0.09  -0.15   0.03     0.00  -0.01   0.00     0.00   0.00   0.00
     9   1     0.40   0.11  -0.01     0.00   0.01   0.00     0.00  -0.01   0.00
    10   1     0.05   0.19  -0.04     0.00   0.00   0.00     0.03   0.05  -0.01
    11   6     0.00  -0.02   0.01     0.78  -0.06   0.05     0.00   0.00   0.00
    12   7     0.00   0.00   0.00    -0.62   0.04  -0.04     0.00   0.00   0.00
    13   7     0.01   0.04   0.00     0.00   0.00   0.00     0.00   0.00   0.00
    14   6     0.02   0.01   0.00     0.00   0.00   0.00     0.01   0.03   0.00
    15   1    -0.12  -0.08  -0.03     0.00   0.00   0.00     0.15  -0.37   0.37
    16   1     0.02  -0.04   0.06     0.00   0.00   0.00    -0.36   0.04  -0.03
    17   1     0.00  -0.03   0.01     0.00   0.00   0.00     0.13  -0.08  -0.32
    18   6     0.01  -0.01  -0.01     0.00   0.00   0.00    -0.01   0.00   0.03
    19   1    -0.02  -0.01   0.00     0.00   0.00   0.00    -0.12  -0.29  -0.08
    20   1     0.01   0.00   0.06     0.00   0.00   0.00     0.33  -0.03   0.03
    21   1    -0.04   0.03   0.04     0.00   0.00   0.00    -0.12   0.33  -0.31
                    49                     50                     51
                     A                      A                      A
 Frequencies --  3256.8302              3343.2205              3349.8891
 Red. masses --     1.0322                 1.0972                 1.1014
 Frc consts  --     6.4506                 7.2256                 7.2822
 IR Inten    --    62.6487                29.7577                28.5715
  Atom  AN      X      Y      Z        X      Y      Z        X      Y      Z
     1   6     0.00   0.00   0.00     0.00   0.00   0.00     0.00   0.00   0.00
     2   6     0.00   0.00   0.00     0.00   0.00   0.00     0.00   0.00   0.00
     3   6     0.00   0.00   0.00     0.00   0.00   0.00     0.00   0.00   0.00
     4   6     0.00   0.00   0.00    -0.01   0.02   0.00     0.00   0.00   0.00
     5   6     0.00   0.01   0.00    -0.02  -0.03   0.01     0.00   0.00   0.00
     6   6     0.00   0.00   0.00     0.00   0.00   0.00     0.00   0.00   0.00
     7   1     0.00   0.00   0.00     0.00   0.00   0.00     0.01  -0.03   0.01
     8   1     0.00   0.00   0.00     0.01   0.01   0.00     0.01   0.02   0.00
     9   1     0.00   0.00   0.00     0.09  -0.19   0.05    -0.01   0.03  -0.01
    10   1    -0.04  -0.06   0.01     0.27   0.37  -0.08    -0.04  -0.05   0.01
    11   6     0.00   0.00   0.00     0.00   0.00   0.00     0.00   0.00   0.00
    12   7     0.00   0.00   0.00     0.00   0.00   0.00     0.00   0.00   0.00
    13   7     0.00   0.00   0.00     0.00   0.00   0.00     0.00   0.00   0.00
    14   6    -0.01  -0.03   0.00    -0.04   0.02  -0.06     0.00   0.00  -0.01
    15   1    -0.13   0.34  -0.33     0.13  -0.38   0.36     0.02  -0.04   0.04
    16   1     0.31  -0.03   0.02     0.51  -0.04   0.01     0.04   0.00   0.00
    17   1    -0.12   0.07   0.29    -0.17   0.11   0.36    -0.01   0.01   0.03
    18   6    -0.01   0.00   0.03     0.00   0.00   0.00     0.04  -0.08   0.03
    19   1    -0.14  -0.33  -0.10    -0.01  -0.02  -0.01     0.20   0.40   0.14
    20   1     0.37  -0.03   0.03     0.01   0.00   0.00    -0.54   0.02  -0.03
    21   1    -0.13   0.37  -0.36     0.00  -0.01   0.01    -0.17   0.48  -0.46
                    52                     53                     54
                     A                      A                      A
 Frequencies --  3354.8308              3356.9528              3369.9280
 Red. masses --     1.0892                 1.0903                 1.0930
 Frc consts  --     7.2228                 7.2391                 7.3134
 IR Inten    --     2.9037                 4.4084                20.3063
  Atom  AN      X      Y      Z        X      Y      Z        X      Y      Z
     1   6     0.02  -0.05   0.01    -0.01   0.02   0.00     0.02  -0.03   0.01
     2   6     0.03   0.05  -0.01    -0.01  -0.02   0.00    -0.02  -0.02   0.00
     3   6     0.00   0.00   0.00     0.00   0.00   0.00     0.00   0.00   0.00
     4   6     0.01  -0.02   0.01     0.03  -0.06   0.02     0.02  -0.04   0.01
     5   6     0.01   0.01   0.00     0.02   0.03  -0.01    -0.03  -0.04   0.01
     6   6     0.00   0.00   0.00     0.00   0.00   0.00     0.00   0.00   0.00
     7   1    -0.27   0.55  -0.15     0.09  -0.18   0.05    -0.17   0.34  -0.09
     8   1    -0.39  -0.55   0.12     0.17   0.23  -0.05     0.18   0.26  -0.06
     9   1    -0.11   0.23  -0.06    -0.31   0.64  -0.17    -0.21   0.43  -0.12
    10   1    -0.10  -0.14   0.03    -0.23  -0.33   0.07     0.38   0.52  -0.11
    11   6     0.00   0.00   0.00     0.00   0.00   0.00     0.00   0.00   0.00
    12   7     0.00   0.00   0.00     0.00   0.00   0.00     0.00   0.00   0.00
    13   7     0.00   0.00   0.00     0.00   0.00   0.00     0.00   0.00   0.00
    14   6    -0.01   0.01  -0.01    -0.02   0.01  -0.03     0.02  -0.01   0.01
    15   1     0.03  -0.09   0.08     0.08  -0.21   0.20    -0.05   0.13  -0.13
    16   1     0.10  -0.01   0.00     0.23  -0.02   0.01    -0.17   0.01  -0.01
    17   1    -0.03   0.02   0.05    -0.06   0.04   0.12     0.01  -0.01  -0.01
    18   6     0.00   0.00   0.00     0.00   0.01   0.00     0.00   0.00   0.00
    19   1     0.00  -0.01   0.00    -0.02  -0.03  -0.01     0.00   0.00   0.00
    20   1    -0.01   0.00   0.00     0.05   0.00   0.00    -0.05   0.00   0.00
    21   1     0.00   0.00   0.00     0.02  -0.05   0.05    -0.01   0.03  -0.03
                    55                     56                     57
                     A                      A                      A
 Frequencies --  3371.5242              3374.1801              3377.3897
 Red. masses --     1.0953                 1.1040                 1.1041
 Frc consts  --     7.3359                 7.4055                 7.4205
 IR Inten    --     0.0629                 7.9974                37.6047
  Atom  AN      X      Y      Z        X      Y      Z        X      Y      Z
     1   6     0.02  -0.05   0.01     0.00   0.01   0.00     0.00   0.00   0.00
     2   6    -0.03  -0.04   0.01     0.00   0.00   0.00     0.00   0.00   0.00
     3   6     0.00   0.00   0.00     0.00   0.00   0.00     0.00   0.00   0.00
     4   6    -0.01   0.03  -0.01     0.00   0.00   0.00     0.00   0.00   0.00
     5   6     0.02   0.03  -0.01     0.00   0.00   0.00     0.00   0.01   0.00
     6   6     0.00   0.00   0.00     0.00   0.00   0.00     0.00   0.00   0.00
     7   1    -0.26   0.54  -0.15     0.03  -0.06   0.02     0.01  -0.02   0.01
     8   1     0.33   0.47  -0.10    -0.03  -0.04   0.01    -0.01  -0.01   0.00
     9   1     0.14  -0.28   0.08    -0.02   0.04  -0.01     0.01  -0.03   0.01
    10   1    -0.21  -0.29   0.06     0.04   0.05  -0.01    -0.05  -0.07   0.01
    11   6     0.00   0.00   0.00     0.00   0.00   0.00     0.00   0.00   0.00
    12   7     0.00   0.00   0.00     0.00   0.00   0.00     0.00   0.00   0.00
    13   7     0.00   0.00   0.00     0.00   0.00   0.00     0.00   0.00   0.00
    14   6    -0.01   0.01   0.00    -0.05   0.01   0.04     0.06  -0.01  -0.04
    15   1     0.02  -0.06   0.06    -0.03   0.04  -0.03     0.04  -0.06   0.04
    16   1     0.11  -0.01   0.00     0.39  -0.03   0.03    -0.50   0.04  -0.04
    17   1     0.01  -0.01  -0.03     0.17  -0.12  -0.43    -0.21   0.14   0.52
    18   6     0.00   0.00   0.00     0.06   0.04   0.01     0.05   0.03   0.01
    19   1    -0.02  -0.05  -0.02    -0.21  -0.50  -0.15    -0.17  -0.40  -0.12
    20   1    -0.04   0.00   0.00    -0.52   0.05  -0.04    -0.42   0.04  -0.03
    21   1     0.01  -0.01   0.01     0.02   0.00   0.01     0.02  -0.01   0.02

 -------------------
 - Thermochemistry -
 -------------------
 Temperature   298.150 Kelvin.  Pressure   1.00000 Atm.
 Atom     1 has atomic number  6 and mass  12.00000
 Atom     2 has atomic number  6 and mass  12.00000
 Atom     3 has atomic number  6 and mass  12.00000
 Atom     4 has atomic number  6 and mass  12.00000
 Atom     5 has atomic number  6 and mass  12.00000
 Atom     6 has atomic number  6 and mass  12.00000
 Atom     7 has atomic number  1 and mass   1.00783
 Atom     8 has atomic number  1 and mass   1.00783
 Atom     9 has atomic number  1 and mass   1.00783
 Atom    10 has atomic number  1 and mass   1.00783
 Atom    11 has atomic number  6 and mass  12.00000
 Atom    12 has atomic number  7 and mass  14.00307
 Atom    13 has atomic number  7 and mass  14.00307
 Atom    14 has atomic number  6 and mass  12.00000
 Atom    15 has atomic number  1 and mass   1.00783
 Atom    16 has atomic number  1 and mass   1.00783
 Atom    17 has atomic number  1 and mass   1.00783
 Atom    18 has atomic number  6 and mass  12.00000
 Atom    19 has atomic number  1 and mass   1.00783
 Atom    20 has atomic number  1 and mass   1.00783
 Atom    21 has atomic number  1 and mass   1.00783
 Molecular mass:   146.08440 amu.
 Principal axes and moments of inertia in atomic units:
                           1         2         3
     Eigenvalues --   527.665803219.405843494.79438
           X            0.99995   0.00822  -0.00617
           Y           -0.00813   0.99986   0.01453
           Z            0.00629  -0.01448   0.99988
 This molecule is an asymmetric top.
 Rotational symmetry number  1.
 Warning -- assumption of classical behavior for rotation
           may cause significant error
 Rotational temperatures (Kelvin)      0.16415     0.02690     0.02478
 Rotational constants (GHZ):           3.42024     0.56058     0.51641
    5 imaginary frequencies ignored.
 Zero-point vibrational energy     456947.8 (Joules/Mol)
                                  109.21314 (Kcal/Mol)
 Warning -- explicit consideration of  11 degrees of freedom as
           vibrations may cause significant error
 Vibrational temperatures:     85.30   371.26   403.15   484.69   589.92
          (Kelvin)            598.95   664.81   714.79   752.24   813.48
                              871.23   969.88  1099.80  1125.60  1153.75
                             1217.82  1364.19  1370.27  1378.47  1471.44
                             1511.85  1560.66  1593.06  1630.00  1665.30
                             1688.96  1745.28  1766.60  1842.54  1945.05
                             1965.36  2070.84  2074.33  2103.90  2164.10
                             2170.24  2184.14  2210.22  2238.65  2346.23
                             2356.56  3517.50  4677.93  4685.85  4810.14
                             4819.74  4826.85  4829.90  4848.57  4850.87
                             4854.69  4859.30
 
 Zero-point correction=                           0.174042 (Hartree/Particle)
 Thermal correction to Energy=                    0.181460
 Thermal correction to Enthalpy=                  0.182405
 Thermal correction to Gibbs Free Energy=         0.141090
 Sum of electronic and zero-point Energies=           -458.136005
 Sum of electronic and thermal Energies=              -458.128587
 Sum of electronic and thermal Enthalpies=            -458.127643
 Sum of electronic and thermal Free Energies=         -458.168958
 
                     E (Thermal)             CV                S
                      KCal/Mol        Cal/Mol-Kelvin    Cal/Mol-Kelvin
 Total                  113.868             30.038             86.955
 Electronic               0.000              0.000              0.000
 Translational            0.889              2.981             40.848
 Rotational               0.889              2.981             30.163
 Vibrational            112.091             24.076             15.943
 Vibration     1          0.597              1.974              4.481
 Vibration     2          0.667              1.749              1.675
 Vibration     3          0.680              1.710              1.532
 Vibration     4          0.718              1.602              1.227
 Vibration     5          0.774              1.448              0.927
 Vibration     6          0.780              1.435              0.905
 Vibration     7          0.820              1.334              0.760
 Vibration     8          0.852              1.257              0.666
 Vibration     9          0.878              1.199              0.603
 Vibration    10          0.921              1.106              0.513
 Vibration    11          0.964              1.020              0.440
                       Q            Log10(Q)             Ln(Q)
 Total Bot       0.126871D-64        -64.896636       -149.430027
 Total V=0       0.143568D+16         15.157058         34.900416
 Vib (Bot)       0.209594D-78        -78.678622       -181.164222
 Vib (Bot)    1  0.348357D+01          0.542025          1.248058
 Vib (Bot)    2  0.753449D+00         -0.122946         -0.283093
 Vib (Bot)    3  0.686079D+00         -0.163626         -0.376763
 Vib (Bot)    4  0.552282D+00         -0.257839         -0.593697
 Vib (Bot)    5  0.431499D+00         -0.365020         -0.840490
 Vib (Bot)    6  0.422982D+00         -0.373678         -0.860425
 Vib (Bot)    7  0.367472D+00         -0.434775         -1.001107
 Vib (Bot)    8  0.331760D+00         -0.479177         -1.103345
 Vib (Bot)    9  0.307927D+00         -0.511552         -1.177892
 Vib (Bot)   10  0.273446D+00         -0.563128         -1.296650
 Vib (Bot)   11  0.245187D+00         -0.610503         -1.405735
 Vib (V=0)       0.237177D+02          1.375073          3.166222
 Vib (V=0)    1  0.401927D+01          0.604147          1.391101
 Vib (V=0)    2  0.140426D+01          0.147447          0.339510
 Vib (V=0)    3  0.134894D+01          0.129994          0.299321
 Vib (V=0)    4  0.124499D+01          0.095167          0.219130
 Vib (V=0)    5  0.116045D+01          0.064626          0.148806
 Vib (V=0)    6  0.115492D+01          0.062550          0.144027
 Vib (V=0)    7  0.112051D+01          0.049417          0.113786
[...]
 .00010416,0.00008250,-0.00107162,0.00045212,0.00038057,-0.00438972,-0.
 00597013,0.01652540,0.02291912,0.00431699,-0.00621833,-0.00127795,-0.0
 3882948,-0.00518983,-0.00296502,-0.13450491,0.00354080,-0.00363982,-0.
 03267967,0.01207061,-0.00121345,0.00534442,0.00473181,0.00079838,-0.00
 230360,-0.00011950,-0.00025903,-0.00078273,0.00029599,-0.00008197,0.00
 129150,0.00059147,0.00046537,0.00123787,-0.00067785,0.00011136,-0.0005
 7502,-0.00016911,-0.00008494,1.58091944,-0.00274487,-0.00394060,-0.000
 97319,-0.02684398,0.00870540,-0.00129163,0.00367020,-0.09217900,-0.001
 54289,0.03363169,0.00218356,0.00228792,0.00130866,-0.00511390,-0.00092
 667,0.00003262,-0.00199200,0.00001443,-0.00128138,0.00032688,-0.000112
 07,-0.00025320,0.00087367,0.00037088,0.00014735,0.00093908,0.00041748,
 0.00135534,0.00015280,0.00005563,-0.12463494,0.09847932,-0.00003684,-0
 .00119115,0.00706319,-0.00480597,0.00005648,0.00108872,-0.00375892,-0.
 00113005,-0.06959126,0.00078973,0.00018687,0.00147753,-0.00072063,-0.0
 0060694,0.00712801,0.00025226,-0.00009627,-0.00047369,-0.00010192,0.00
 005240,0.00060230,0.00038250,0.00041269,-0.00402754,0.00028252,0.00034
 337,-0.00415581,0.00016193,-0.00012156,0.00065582,0.08686676,-0.005091
 15,0.06703917,-0.00176899,0.00061675,0.00034569,0.00377060,0.00596682,
 0.00060591,-0.00467671,0.00189049,-0.00111172,0.00241811,-0.00682620,-
 0.00048502,-0.00191555,-0.00016760,-0.00041347,0.00215670,-0.00006598,
 0.00019998,-0.00025491,0.00003277,0.00000206,-0.00007652,-0.00037595,-
 0.00011769,-0.00003923,0.00038482,0.00008391,-0.00027945,0.00000683,-0
 .00000706,-1.38520192,0.11561571,-0.07893895,1.38733583,0.00049213,0.0
 0077656,0.00014695,0.00200217,-0.00253548,-0.00008358,0.00179417,0.016
 89568,0.00028925,-0.00276581,-0.00106423,-0.00033135,-0.00007439,0.000
 87484,0.00018279,-0.00013987,0.00044245,-0.00000347,0.00027384,-0.0001
 0260,0.00002381,0.00007648,0.00001219,-0.00003524,-0.00006070,-0.00003
 973,-0.00005962,-0.00023086,-0.00005749,-0.00000480,0.11563007,-0.0089
 0575,0.00671116,-0.11708809,-0.00622430,-0.00008325,0.00017421,-0.0011
 4606,0.00038346,0.00016400,0.00080724,-0.00110142,0.00019802,0.0144306
 2,-0.00019703,-0.00041983,0.00071286,0.00011735,0.00014533,-0.00115811
 ,0.00004485,0.00002067,0.00008725,-0.00000192,-0.00000798,-0.00018853,
 -0.00005156,-0.00006843,0.00059432,-0.00002655,-0.00002663,0.00062428,
 -0.00005654,0.00002966,-0.00019555,-0.07898988,0.00672854,-0.00552266,
 0.07992555,-0.00682947,-0.00927081,-0.02922688,0.01048086,0.00360676,0
 .00558738,0.00161152,0.00217691,-0.00328281,-0.00081813,-0.00012779,0.
 00347008,-0.00366275,-0.00279896,-0.03972832,-0.00518351,-0.00757702,-
 0.16859095,-0.01035860,-0.00142106,0.00102259,-0.00094141,-0.00022021,
 -0.00048838,0.00003946,-0.00048957,-0.00117344,0.00012548,0.00022218,-
 0.00026389,0.00160626,0.00079377,0.00203733,-0.00018454,-0.00002672,-0
 .00154476,0.00013825,-0.00003797,0.41614924,0.03347614,0.00408662,0.00
 402825,0.00135234,-0.00469868,-0.00029764,-0.00077874,0.00020198,-0.00
 007137,0.00029361,-0.00504052,-0.00126670,-0.02677027,0.00735809,-0.00
 497711,0.04131643,-0.08511022,-0.01361699,-0.00135433,0.00259448,0.001
 20344,0.00135462,0.00005896,-0.00011851,-0.00131790,0.00008286,0.00049
 439,0.00279212,-0.00044407,0.00020813,0.00048209,0.00037822,0.00014553
 ,-0.00023065,-0.00002137,-0.00003384,-0.09816629,0.35119283,0.00147104
 ,0.00141434,0.00545923,0.00288726,-0.00110695,0.00717460,-0.00102309,-
 0.00178961,-0.00088713,-0.00162312,-0.00052845,0.00703450,-0.00420953,
 0.00326027,0.00445462,-0.02038659,-0.01929844,-0.08011683,0.00011747,0
 .00075289,-0.00395792,0.00038932,0.00001054,-0.00014991,-0.00024046,0.
 00007952,-0.00029045,0.00143554,-0.00015105,-0.00441136,0.00059125,0.0
 0005681,-0.00121973,-0.00033462,0.00001049,0.00024066,0.04836266,0.088
 09665,0.46113385,-0.00429601,-0.00267557,-0.00047527,-0.00047661,0.001
 24012,-0.00121493,-0.00038053,0.00044503,-0.00008440,0.00088344,0.0017
 5603,0.00017631,-0.00711732,-0.00111941,0.00313249,-0.02852073,0.03894
 419,0.02256050,-0.00002768,0.00024520,0.00054823,-0.00036616,0.0000207
 4,-0.00005859,0.00023903,-0.00007528,0.00012929,-0.00659405,0.00268187
 ,0.00085415,0.00007427,0.00008531,0.00005803,-0.00010021,-0.00001729,-
 0.00000817,-0.09705839,0.01651846,0.00481349,0.67700711,-0.00095424,0.
 00179456,-0.00082831,0.00112701,-0.00020417,-0.00015635,-0.00086610,-0
 .00018589,-0.00003505,-0.00002331,-0.00175226,-0.00148133,-0.00251869,
 0.00082337,0.00018131,0.01351334,-0.01353514,-0.00062164,-0.00006852,0
 .00014945,-0.00014702,-0.00003106,0.00004316,0.00010943,-0.00027128,0.
 00004995,-0.00007074,-0.00351648,-0.00016052,0.00123890,0.00071241,-0.
 00024516,0.00034858,-0.00039455,0.00005166,-0.00009557,0.04449888,-0.1
 4794085,-0.07718173,0.03046885,0.49702109,-0.00289568,0.00071007,0.000
 12241,-0.00044875,0.00044516,0.00014314,-0.00033046,0.00018567,-0.0000
 4155,-0.00014658,-0.00052659,-0.00029843,-0.00318344,-0.00038691,0.000
 91030,0.00763594,-0.00283126,0.00123438,0.00029517,-0.00025690,-0.0000
 2558,-0.00028664,0.00009249,-0.00003231,-0.00033126,-0.00007675,0.0001
 1182,0.00065205,0.00015307,0.00071851,0.00020317,-0.00000107,-0.000004
 06,-0.00028633,0.00001929,-0.00002816,0.01010250,-0.03254416,-0.112204
 77,0.03452485,-0.07047619,0.63541486,-0.00024108,-0.00006447,0.0000218
 0,0.00009656,-0.00001781,0.00007018,-0.00004644,-0.00022807,-0.0000364
 5,0.00011745,0.00055424,0.00075707,-0.00523762,0.00223346,0.00031146,-
 0.00012794,0.00056306,-0.00100056,0.00010585,-0.00012018,0.00002937,0.
 00001709,-0.00000860,-0.00000405,-0.00003514,-0.00001798,0.00002774,-0
 .00749491,0.00103785,0.00005693,-0.00014285,0.00005412,-0.00020195,0.0
 0008347,-0.00001572,0.00005030,0.00733521,0.01178997,-0.00168243,-0.10
 402336,-0.11132904,0.05392325,0.12002324,0.00153101,-0.00045119,-0.000
 28225,-0.00053651,-0.00012368,-0.00021759,0.00015103,0.00035480,0.0000
 3585,0.00000957,0.00108347,0.00037689,-0.00044563,0.00038174,0.0004178
 0,-0.00749819,0.00020731,-0.00054212,-0.00018797,0.00044939,0.00016732
 ,0.00006644,-0.00000739,0.00003833,0.00013424,-0.00003660,-0.00000946,
 0.00084106,0.00250745,-0.00003855,-0.00020245,0.00018649,-0.00004058,0
 .00008677,-0.00003073,0.00001023,-0.00404116,-0.04675101,-0.00192645,-
 0.10668654,-0.23665060,0.10064076,0.11675390,0.27567010,0.00021156,-0.
 00024217,-0.00021464,-0.00012255,-0.00013375,-0.00011088,0.00003304,0.
 00032054,0.00006788,0.00028523,-0.00076426,-0.00031866,0.00077287,0.00
 145808,-0.00006415,-0.00086052,0.00003398,0.00078055,-0.00005938,0.000
 03595,0.00001145,-0.00000691,-0.00001587,0.00000469,-0.00003130,0.0000
 2157,-0.00000517,0.00100387,-0.00094353,0.00153390,0.00007179,-0.00007
 462,0.00008945,0.00001559,0.00000487,-0.00001969,-0.00617038,-0.022642
 27,0.00351369,0.05214227,0.10066230,-0.09883511,-0.06073951,-0.1017975
 9,0.09845857,-0.00024320,-0.00028163,0.00023750,-0.00017930,0.00010737
 ,-0.00007000,-0.00006467,0.00016680,0.00000360,0.00017599,0.00009736,0
 .00019895,-0.00012912,-0.00011345,0.00004768,0.00103531,0.00069146,0.0
 0131252,0.00000502,0.00005266,0.00000913,-0.00004847,0.00001575,-0.000
 01893,-0.00003096,-0.00001153,0.00000399,0.00007101,0.00054687,-0.0002
 3679,0.00007778,0.00002431,-0.00002180,-0.00011559,0.00000398,-0.00000
 029,-0.00954099,0.00336792,-0.00149135,-0.36288965,0.02109141,-0.01972
 407,-0.01389107,0.00200209,-0.00253788,0.39168145,0.00141366,0.0003628
 8,-0.00008282,-0.00003684,-0.00029616,0.00033910,0.00005640,-0.0000521
 8,-0.00010197,-0.00013909,0.00057957,0.00030375,-0.00079321,-0.0008916
 0,0.00029809,0.00042860,-0.00447034,-0.00425247,-0.00003110,0.00003326
 ,-0.00013440,0.00012131,-0.00001230,0.00003195,0.00004319,-0.00000511,
 0.00002768,-0.00004850,0.00093086,-0.00007914,-0.00012403,0.00008651,-
 0.00007028,0.00006571,-0.00001809,0.00001775,0.03527864,-0.00848696,-0
 .00048633,0.01528962,-0.04532650,0.00223757,-0.02923093,0.00314364,-0.
 00232109,-0.02623437,0.05332328,0.00094644,0.00000406,0.00021720,-0.00
 025438,-0.00031891,0.00014007,0.00008910,0.00023697,-0.00003635,0.0002
 0917,-0.00023043,0.00002028,-0.00011164,-0.00034968,0.00058162,0.00140
 144,-0.00248587,-0.00193892,-0.00001515,-0.00003650,-0.00007862,0.0000
 5906,-0.00000296,-0.00001385,0.00002501,0.00000644,0.00001839,-0.00032
 581,0.00010419,-0.00019596,-0.00000940,-0.00000255,0.00000441,0.000011
 75,0.00000090,-0.00000222,0.01956991,-0.00480986,-0.00074160,-0.025503
 16,0.00325848,-0.04899417,0.01491931,0.00009697,0.00125918,0.02115768,
 0.00259898,0.04895173,0.00013520,0.00009046,0.00015447,0.00020316,0.00
 007657,-0.00006371,0.00007760,-0.00027496,0.00008344,-0.00032471,0.000
 10089,-0.00011894,0.00016193,0.00026109,-0.00040673,0.00021810,0.00019
 742,0.00216459,0.00000830,-0.00000799,0.00002766,0.00003360,-0.0000141
 2,-0.00002026,0.00000315,0.00000830,-0.00004276,0.00036903,-0.00038693
 ,0.00054289,-0.00008378,-0.00001615,0.00001796,0.00008495,-0.00000336,
 0.00000006,0.00170798,0.00122653,0.01175715,-0.07279879,0.00930745,-0.
 08884614,0.00373279,-0.00320251,0.01603897,-0.00709095,0.00412165,-0.0
 3370859,0.07317645,-0.00012251,-0.00026834,0.00034101,-0.00009537,-0.0
 0003590,-0.00001920,0.00000375,0.00007706,0.00006927,0.00010034,0.0000
 0009,-0.00002645,0.00018273,0.00034282,-0.00036845,-0.00098085,0.00126
 227,-0.00052222,0.00000674,-0.00004018,-0.00007474,-0.00001238,0.00000
 260,-0.00005119,-0.00000267,-0.00000343,-0.00002904,0.00052427,-0.0003
 5649,0.00023496,0.00000059,-0.00001187,0.00000663,-0.00000637,-0.00000
 097,-0.00000137,-0.00842104,-0.00198402,-0.03485529,0.01105891,-0.0499
 1748,0.04346814,0.00859392,-0.00214214,0.02821603,-0.00039243,0.000047
 73,0.00196601,-0.01330840,0.05680845,0.00068952,-0.00050850,0.00007755
 ,-0.00045534,-0.00011127,-0.00009974,0.00015947,0.00033641,-0.00001632
 ,0.00028881,-0.00008506,0.00017066,0.00013581,0.00014119,0.00062934,-0
 .00178290,0.00074235,0.00024972,-0.00003356,0.00004717,-0.00003125,0.0
 0001128,0.00000031,-0.00001802,0.00003960,0.00001089,-0.00003683,-0.00
 016806,0.00019751,-0.00036408,-0.00002065,0.00001997,0.00000424,0.0000
 0618,-0.00000359,0.00000615,-0.00493150,-0.00146659,-0.01794161,-0.082
 74328,0.03608344,-0.33639019,-0.00544578,0.00091389,-0.01195977,0.0015
 0676,0.00061479,0.00047879,0.09078872,-0.03358163,0.36598296,0.0004193
 8,-0.00242165,-0.00171639,-0.00089439,-0.00053348,0.00103676,0.0003390
 1,0.00051305,-0.00007480,-0.00012906,-0.00056992,0.00172015,-0.0017237
 1,0.00288742,0.00068106,-0.03240732,0.00342230,-0.04237328,0.00012555,
 0.00030283,-0.00049836,-0.00006366,0.00001671,0.00001866,-0.00013053,0
 .00001582,-0.00011700,-0.00037894,-0.00027563,-0.00081983,-0.00015645,
 0.00003677,-0.00016204,0.00010165,-0.00001703,0.00002668,-0.08464166,0
 .01130195,-0.02156998,0.00709171,-0.00116701,0.00932846,-0.00001774,0.
 00102220,-0.00102689,0.00029594,0.00077861,0.00206464,-0.00082852,0.00
 291619,0.00218483,0.66175335,0.00360989,-0.00126604,-0.00157425,-0.001
 27702,-0.00052272,-0.00090923,0.00100500,0.00070991,0.00006754,-0.0002
 7634,-0.00107534,-0.00002323,-0.00205798,0.00208559,0.00078474,-0.0092
 3384,-0.00265281,0.00598378,0.00040954,-0.00064780,0.00059249,0.000008
 73,-0.00006189,0.00015143,-0.00016365,0.00001671,-0.00006039,0.0001387
 7,-0.00048500,-0.00039012,-0.00050339,0.00001562,0.00011006,0.00032756
 ,-0.00003768,-0.00000883,0.03230881,-0.06688954,0.02907168,-0.00837934
 ,-0.00896729,-0.03876064,0.00004018,0.00065809,-0.00436743,-0.00103981
 ,0.00102576,0.00003063,0.00170744,-0.00411832,-0.00362349,-0.00915264,
 0.64845090,0.00263258,-0.00144666,-0.00078915,-0.00052314,-0.00014095,
 -0.00004296,0.00132751,-0.00055471,0.00020746,-0.00107852,0.00156878,0
 .00050803,0.00667303,-0.00049515,0.00120611,-0.01546524,0.01014076,-0.
 01045248,-0.00049163,0.00011334,0.00024731,0.00023067,-0.00009749,-0.0
 0000980,0.00048704,0.00008920,-0.00014237,-0.00044603,0.00052235,0.000
 24147,-0.00078637,0.00006413,-0.00004036,0.00064793,-0.00004879,0.0000
 0019,-0.03842294,-0.02162326,-0.19135578,-0.00279207,0.00150818,-0.039
 97838,-0.00057670,0.00473618,0.00502058,-0.00123636,0.00116954,0.00053
 648,0.00133327,-0.00286835,-0.00066846,-0.04093351,0.05059372,0.481030
 85,0.00006114,0.00039367,-0.00019950,0.00000564,0.00000782,0.00004930,
 0.00000947,-0.00012431,0.00002015,-0.00018617,0.00007724,-0.00007178,0
 .00024728,0.00001152,0.00013393,0.00007442,-0.00150189,-0.00063398,0.0
 0002235,0.00012473,-0.00015917,0.00004225,-0.00000463,-0.00004104,0.00
 000890,0.00001080,-0.00002425,0.00007255,0.00004515,0.00002687,-0.0000
 5582,0.00001290,-0.00000661,0.00006658,-0.00000769,0.00000664,0.002324
 71,-0.00807920,-0.00787227,-0.00071665,-0.00003686,-0.00216053,-0.0000
 2715,0.00030220,0.00014838,0.00055194,-0.00012766,-0.00005635,0.000706
 40,-0.00030958,-0.00027810,-0.07713128,0.08069762,0.05162312,0.0771591
 5,-0.00002243,0.00027540,0.00045091,-0.00039882,-0.00008308,0.00014362
 ,-0.00001686,0.00028427,-0.00003484,0.00024739,-0.00013532,0.00004633,
 -0.00045191,-0.00048605,-0.00017629,0.00099585,0.00036389,0.00032372,0
 .00011578,-0.00005198,-0.00005423,-0.00001336,0.00000870,0.00000816,-0
 .00000424,-0.00000639,0.00001038,0.00008695,0.00010948,0.00005272,-0.0
 0001335,0.00001220,-0.00003185,-0.00000759,-0.00000006,0.00001361,-0.0
 0186707,0.00573648,0.00439973,-0.00000668,0.00138585,0.00088315,0.0001
 7009,0.00056098,0.00043625,-0.00005731,-0.00013559,0.00022681,0.000003
 97,0.00036618,0.00005060,0.07829909,-0.25931067,-0.13248530,-0.0858720
 9,0.27405882,0.00018361,-0.00036620,0.00029590,-0.00065301,-0.00000180
 ,0.00005701,0.00014023,0.00053015,0.00000438,0.00044289,-0.00031443,-0
 .00009573,-0.00084252,-0.00000291,0.00008375,0.00121008,-0.00091083,0.
 00040898,-0.00002733,0.00035674,-0.00034890,-0.00002843,-0.00000997,0.
 00001278,-0.00003158,0.00000628,-0.00000180,0.00011970,0.00005894,0.00
 000777,-0.00006225,0.00005109,-0.00000619,0.00006536,-0.00001124,0.000
 00569,0.01158904,-0.02831302,-0.02638492,-0.00376307,0.00136522,-0.005
 88631,-0.00022231,-0.00032944,0.00005074,0.00001491,0.00044191,0.00027
 460,0.00048936,-0.00176802,-0.00098724,0.04657695,-0.12496481,-0.12127
 191,-0.05079488,0.14106939,0.14382450,-0.00007730,-0.00027517,-0.00008
 174,0.00004323,0.00000661,0.00005545,-0.00009482,-0.00001262,-0.000014
 50,0.00001353,-0.00003767,0.00006669,0.00005076,0.00040444,-0.00033317
 ,0.00133106,-0.00053063,-0.00190427,0.00001394,-0.00001869,0.00003108,
 -0.00003391,0.00001543,0.00000677,-0.00004188,-0.00000798,0.00001268,0
 .00000847,-0.00001936,0.00008202,0.00010927,-0.00001023,0.00000481,-0.
 00012360,0.00001092,-0.00000905,-0.00893647,0.00298189,-0.00183212,0.0
 0025520,0.00011947,0.00159267,-0.00032352,-0.00018627,-0.00002560,0.00
 059133,-0.00045468,-0.00043750,0.00054812,-0.00006502,0.00001766,-0.36
 334483,0.02421048,-0.01256580,-0.00791521,-0.00159322,-0.00090440,0.39
 192323,0.00052657,-0.00016552,0.00003665,-0.00049883,-0.00013585,-0.00
 001598,0.00012155,0.00038779,0.00006473,0.00039286,-0.00008759,-0.0001
 2143,0.00002695,-0.00003442,0.00006282,-0.00042305,0.00129764,0.000659
 05,-0.00001356,0.00007782,-0.00014850,0.00001367,-0.00001078,0.0000252
 1,0.00003841,0.00000435,-0.00005048,-0.00000450,0.00002372,0.00021876,
 -0.00005833,0.00001255,0.00000714,0.00005369,-0.00000764,-0.00000060,0
 .00649961,-0.00088826,0.00035714,-0.00117819,0.00030296,-0.00067238,-0
 .00023373,-0.00014748,0.00011034,0.00008981,0.00031441,-0.00030669,0.0
 0000845,-0.00022817,0.00015540,0.02410642,-0.05002221,0.00135055,0.028
 82431,-0.00084170,0.00191118,-0.02783986,0.04742617,-0.00039310,-0.000
 01269,0.00007438,-0.00003705,0.00001118,0.00033967,-0.00013843,0.00005
 983,-0.00005122,-0.00003208,-0.00033592,0.00043650,-0.00123177,0.00040
 664,0.00021084,-0.00142561,-0.00139567,-0.00582627,0.00005900,0.000125
 26,-0.00025852,-0.00004836,0.00001891,-0.00000674,-0.00010562,-0.00000
 327,-0.00004324,0.00001210,-0.00014533,-0.00028184,0.00008868,0.000001
 27,-0.00006242,-0.00007920,0.00000421,0.00001013,-0.03926187,0.0059707
 8,-0.01042960,-0.00189454,0.00061757,0.00135839,0.00025243,-0.00021929
 ,-0.00026599,0.00066730,-0.00035189,-0.00025516,0.00011020,0.00038622,
 0.00039244,-0.00431438,-0.00043760,-0.04445282,0.01812640,-0.00005360,
 0.00194194,0.01667699,-0.00268515,0.05525467,-0.00033748,0.00012629,0.
 00053834,0.00028023,0.00030662,0.00002726,0.00011759,-0.00052887,0.000
 02176,-0.00056768,0.00046808,0.00019561,0.00133260,-0.00086052,0.00064
 273,0.00319187,0.00281020,-0.00169475,-0.00003228,-0.00002356,-0.00005
 744,0.00001322,-0.00000817,-0.00005115,0.00007662,0.00002138,-0.000111
 83,-0.00003716,0.00012829,-0.00026411,-0.00009268,-0.00000570,-0.00003
 415,0.00007956,-0.00000120,0.00000872,0.00484241,0.00844329,-0.0095596
 4,-0.00018461,0.00033833,0.00038182,0.00009718,0.00008672,0.00085734,-
 0.00026180,-0.00037698,-0.00003153,-0.00004002,0.00032918,0.00003057,-
 0.10827852,-0.11238001,0.05036316,0.00467951,0.01040579,-0.00350234,-0
 .01399660,-0.03045227,0.01296892,0.10911804,0.00079170,-0.00075413,-0.
 00008848,-0.00047779,-0.00009415,-0.00004769,0.00034314,0.00023128,0.0
 0007783,0.00019857,0.00015591,0.00010414,0.00120251,-0.00010504,0.0000
 4375,-0.00230474,0.00139689,-0.00105399,-0.00009147,0.00015869,-0.0000
 1997,0.00002310,-0.00001663,0.00002881,0.00009501,0.00002221,-0.000023
 20,-0.00019287,0.00018363,0.00019558,-0.00014476,0.00003599,-0.0000011
 1,0.00011503,-0.00000727,-0.00000947,0.00105671,-0.00343500,0.00981425
 ,0.00138397,0.00326382,-0.00230251,-0.00052425,0.00113734,0.00200269,-
 0.00012725,-0.00015307,0.00001300,0.00010418,0.00020012,0.00006621,-0.
 11148198,-0.25690526,0.08790390,-0.01444405,-0.02211141,0.01120178,0.0
 0330214,0.00272221,-0.00196145,0.12117310,0.27407387,-0.00173736,0.000
 70064,0.00079505,0.00098432,0.00043175,0.00018862,-0.00038931,-0.00074
 871,-0.00007748,-0.00046259,0.00015701,-0.00003020,-0.00009434,-0.0004
 1833,-0.00001060,0.00674029,0.00000542,0.00003303,0.00009244,-0.000067
 36,-0.00011204,-0.00004044,0.00002045,-0.00006655,-0.00006924,-0.00001
 000,-0.00000068,-0.00007177,-0.00018959,-0.00037821,0.00019397,-0.0000
 5232,-0.00004913,-0.00013583,0.00001744,0.00001240,0.00506227,0.031634
 15,-0.03891953,-0.00040212,0.00572052,0.00270523,-0.00051011,-0.002030
 88,0.00100338,0.00017745,-0.00020072,-0.00022590,-0.00030161,-0.000522
 33,0.00052166,0.04996827,0.08773396,-0.07979400,-0.00783630,-0.0152792
 9,0.00801492,-0.00043869,-0.00095777,0.00191487,-0.05072930,-0.1059440
 6,0.10447516||-0.01231266,-0.00799563,0.00107137,0.00848554,-0.0049229
 3,0.00133198,-0.05228179,0.00308670,-0.00304160,0.00748885,0.00404579,
 0.00045908,-0.01734823,0.01192894,-0.00029983,0.01332821,0.00344866,-0
 .00305572,0.00717400,0.00732855,-0.00003548,-0.00442545,0.00911588,0.0
 0005229,-0.00619395,-0.00831665,-0.00087422,-0.00255789,-0.00787167,-0
 .00042529,0.12249957,-0.01026041,0.00664108,-0.06629276,0.00551557,-0.
 00368424,-0.02203165,-0.00010734,-0.00651587,0.00397337,0.01500792,0.0
 0286095,0.00110220,-0.02293120,0.00389849,0.01598379,-0.00092601,0.000
 53507,-0.00330193,0.00039897,-0.01531946,0.00084678,0.01005238,-0.0096
 4898,-0.00359766,0.01196479,0.00981370,0.01652534,-0.00023329,0.001647
 90,-0.00706368,-0.01832903,0.01458878|||@


 TO DETECT ERRORS, THE PROGRAMMER MUST HAVE A CONNIVING MIND,
 ONE THAT DELIGHTS IN UNCOVERING FLAWS WHERE BEAUTY AND
 PERFECTION WERE ONCE THOUGHT TO LIE.

             -- THE PSYCHOLOGY OF COMPUTER PROGRAMMING
                GERALD M. WEINBERG
 Job cpu time:  0 days  0 hours  5 minutes 14.0 seconds.
 File lengths (MBytes):  RWF=     49 Int=      0 D2E=      0 Chk=      2 Scr=      1
 Normal termination of Gaussian 09 at Wed Jan 15 23:51:52 2025.
