 Entering Link 1 = C:\G09W\l1.exe PID=      9380.
  
 Copyright (c) 1988,1990,1992,1993,1995,1998,2003,2009, Gaussian, Inc.
                  All Rights Reserved.
  
 This is part of the Gaussian(R) 09 program.  It is based on
 the Gaussian(R) 03 system (copyright 2003, Gaussian, Inc.),
 the Gaussian(R) 98 system (copyright 1998, Gaussian, Inc.),
 the Gaussian(R) 94 system (copyright 1995, Gaussian, Inc.),
 the Gaussian 92(TM) system (copyright 1992, Gaussian, Inc.),
 the Gaussian 90(TM) system (copyright 1990, Gaussian, Inc.),
 the Gaussian 88(TM) system (copyright 1988, Gaussian, Inc.),
 the Gaussian 86(TM) system (copyright 1986, Carnegie Mellon
 University), and the Gaussian 82(TM) system (copyright 1983,
 Carnegie Mellon University). Gaussian is a federally registered
 trademark of Gaussian, Inc.
  
 This software contains proprietary and confidential information,
 including trade secrets, belonging to Gaussian, Inc.
  
 This software is provided under written license and may be
 used, copied, transmitted, or stored only in accord with that
 written license.
  
 The following legend is applicable only to US Government
 contracts under FAR:
  
                    RESTRICTED RIGHTS LEGEND
  
 Use, reproduction and disclosure by the US Government is
 subject to restrictions as set forth in subparagraphs (a)
 and (c) of the Commercial Computer Software - Restricted
 Rights clause in FAR 52.227-19.
  
 Gaussian, Inc.
 340 Quinnipiac St., Bldg. 40, Wallingford CT 06492
  
  
 ---------------------------------------------------------------
 Warning -- This program may not be used in any manner that
 competes with the business of Gaussian, Inc. or will provide
 assistance to any competitor of Gaussian, Inc.  The licensee
 of this program is prohibited from giving any competitor of
 Gaussian, Inc. access to this program.  By using this program,
 the user acknowledges that Gaussian, Inc. is engaged in the
 business of creating and licensing software in the field of
 computational chemistry and represents and warrants to the
 licensee that it is not a competitor of Gaussian, Inc. and that
 it will not use this program in any manner prohibited above.
 ---------------------------------------------------------------
  

 Cite this work as:
 Gaussian 09, Revision A.02,
 M. J. Frisch, G. W. Trucks, H. B. Schlegel, G. E. Scuseria, 
 M. A. Robb, J. R. Cheeseman, G. Scalmani, V. Barone, B. Mennucci, 
 G. A. Petersson, H. Nakatsuji, M. Caricato, X. Li, H. P. Hratchian, 
 A. F. Izmaylov, J. Bloino, G. Zheng, J. L. Sonnenberg, M. Hada, 
 M. Ehara, K. Toyota, R. Fukuda, J. Hasegawa, M. Ishida, T. Nakajima, 
 Y. Honda, O. Kitao, H. Nakai, T. Vreven, J. A. Montgomery, Jr., 
 J. E. Peralta, F. Ogliaro, M. Bearpark, J. J. Heyd, E. Brothers, 
 K. N. Kudin, V. N. Staroverov, R. Kobayashi, J. Normand, 
 K. Raghavachari, A. Rendell, J. C. Burant, S. S. Iyengar, J. Tomasi, 
 M. Cossi, N. Rega, J. M. Millam, M. Klene, J. E. Knox, J. B. Cross, 
 V. Bakken, C. Adamo, J. Jaramillo, R. Gomperts, R. E. Stratmann, 
 O. Yazyev, A. J. Austin, R. Cammi, C. Pomelli, J. W. Ochterski, 
 R. L. Martin, K. Morokuma, V. G. Zakrzewski, G. A. Voth, 
 P. Salvador, J. J. Dannenberg, S. Dapprich, A. D. Daniels, 
 O. Farkas, J. B. Foresman, J. V. Ortiz, J. Cioslowski, 
 and D. J. Fox, Gaussian, Inc., Wallingford CT, 2009.
 
 ******************************************
 Gaussian 09:  IA32W-G09RevA.02 11-Jun-2009
                11-Jan-2025 
 ******************************************
 %chk=C:\G09W\Final\opt1.chk
 -----------------------------------
 # opt b3lyp/3-21g geom=connectivity
 -----------------------------------
 1/14=-1,18=20,19=15,26=3,38=1,57=2/1,3;
 2/9=110,12=2,17=6,18=5,40=1/2;
 3/5=5,11=2,16=1,25=1,30=1,71=1,74=-5/1,2,3;
 4//1;
 5/5=2,38=5/2;
 6/7=2,8=2,9=2,10=2,28=1/1;
 7//1,2,3,16;
 1/14=-1,18=20,19=15/3(2);
 2/9=110/2;
 99//99;
 2/9=110/2;
 3/5=5,11=2,16=1,25=1,30=1,71=1,74=-5/1,2,3;
 4/5=5,16=3/1;
 5/5=2,38=5/2;
 7//1,2,3,16;
 1/14=-1,18=20,19=15/3(-5);
 2/9=110/2;
 6/7=2,8=2,9=2,10=2,19=2,28=1/1;
 99/9=1/99;
 -------------------
 Title Card Required
 -------------------
 Symbolic Z-matrix:
 Charge =  0 Multiplicity = 1
 C                    -2.35124  -0.74827   0.08065 
 C                    -0.95695  -0.86462   0.16026 
 C                    -0.16477   0.28313   0.29826 
 C                    -0.76689   1.54724   0.35666 
 C                    -2.16118   1.66359   0.27705 
 C                    -2.95336   0.51583   0.13905 
 H                    -2.95608  -1.62461  -0.02472 
 H                    -0.49722  -1.8298    0.11567 
 H                    -0.16205   2.42357   0.46202 
 H                    -2.62092   2.62876   0.32164 
 C                     1.36741   0.15527   0.38573 
 N                     2.5082    0.06008   0.45086 
 N                    -4.4159    0.63788   0.05555 
 C                    -4.8532    1.81848   0.8144 
 H                    -4.39808   2.69532   0.40342 
 H                    -5.91778   1.90732   0.75362 
 H                    -4.56206   1.71214   1.83852 
 C                    -4.81588   0.78397  -1.35143 
 H                    -4.49757  -0.07537  -1.90379 
 H                    -5.88045   0.87281  -1.41221 
 H                    -4.36076   1.66082  -1.76241 
 

 GradGradGradGradGradGradGradGradGradGradGradGradGradGradGradGradGradGrad
 Berny optimization.
 Initialization pass.
                           ----------------------------
                           !    Initial Parameters    !
                           ! (Angstroms and Degrees)  !
 --------------------------                            --------------------------
 ! Name  Definition              Value          Derivative Info.                !
 --------------------------------------------------------------------------------
 ! R1    R(1,2)                  1.4014         estimate D2E/DX2                !
 ! R2    R(1,6)                  1.4014         estimate D2E/DX2                !
 ! R3    R(1,7)                  1.07           estimate D2E/DX2                !
 ! R4    R(2,3)                  1.4014         estimate D2E/DX2                !
 ! R5    R(2,8)                  1.07           estimate D2E/DX2                !
 ! R6    R(3,4)                  1.4014         estimate D2E/DX2                !
 ! R7    R(3,11)                 1.54           estimate D2E/DX2                !
 ! R8    R(4,5)                  1.4014         estimate D2E/DX2                !
 ! R9    R(4,9)                  1.07           estimate D2E/DX2                !
 ! R10   R(5,6)                  1.4014         estimate D2E/DX2                !
 ! R11   R(5,10)                 1.07           estimate D2E/DX2                !
 ! R12   R(6,13)                 1.47           estimate D2E/DX2                !
 ! R13   R(11,12)                1.1466         estimate D2E/DX2                !
 ! R14   R(13,14)                1.47           estimate D2E/DX2                !
 ! R15   R(13,18)                1.47           estimate D2E/DX2                !
 ! R16   R(14,15)                1.07           estimate D2E/DX2                !
 ! R17   R(14,16)                1.07           estimate D2E/DX2                !
 ! R18   R(14,17)                1.07           estimate D2E/DX2                !
 ! R19   R(18,19)                1.07           estimate D2E/DX2                !
 ! R20   R(18,20)                1.07           estimate D2E/DX2                !
 ! R21   R(18,21)                1.07           estimate D2E/DX2                !
 ! A1    A(2,1,6)              120.0            estimate D2E/DX2                !
 ! A2    A(2,1,7)              120.0            estimate D2E/DX2                !
 ! A3    A(6,1,7)              120.0            estimate D2E/DX2                !
 ! A4    A(1,2,3)              120.0            estimate D2E/DX2                !
 ! A5    A(1,2,8)              120.0            estimate D2E/DX2                !
 ! A6    A(3,2,8)              120.0            estimate D2E/DX2                !
 ! A7    A(2,3,4)              120.0            estimate D2E/DX2                !
 ! A8    A(2,3,11)             120.0            estimate D2E/DX2                !
 ! A9    A(4,3,11)             120.0            estimate D2E/DX2                !
 ! A10   A(3,4,5)              120.0            estimate D2E/DX2                !
 ! A11   A(3,4,9)              120.0            estimate D2E/DX2                !
 ! A12   A(5,4,9)              120.0            estimate D2E/DX2                !
 ! A13   A(4,5,6)              120.0            estimate D2E/DX2                !
 ! A14   A(4,5,10)             120.0            estimate D2E/DX2                !
 ! A15   A(6,5,10)             120.0            estimate D2E/DX2                !
 ! A16   A(1,6,5)              120.0            estimate D2E/DX2                !
 ! A17   A(1,6,13)             120.0            estimate D2E/DX2                !
 ! A18   A(5,6,13)             120.0            estimate D2E/DX2                !
 ! A19   A(6,13,14)            109.4712         estimate D2E/DX2                !
 ! A20   A(6,13,18)            109.4712         estimate D2E/DX2                !
 ! A21   A(14,13,18)           109.4712         estimate D2E/DX2                !
 ! A22   A(13,14,15)           109.4712         estimate D2E/DX2                !
 ! A23   A(13,14,16)           109.4712         estimate D2E/DX2                !
 ! A24   A(13,14,17)           109.4712         estimate D2E/DX2                !
 ! A25   A(15,14,16)           109.4712         estimate D2E/DX2                !
 ! A26   A(15,14,17)           109.4712         estimate D2E/DX2                !
 ! A27   A(16,14,17)           109.4712         estimate D2E/DX2                !
 ! A28   A(13,18,19)           109.4712         estimate D2E/DX2                !
 ! A29   A(13,18,20)           109.4712         estimate D2E/DX2                !
 ! A30   A(13,18,21)           109.4712         estimate D2E/DX2                !
 ! A31   A(19,18,20)           109.4712         estimate D2E/DX2                !
 ! A32   A(19,18,21)           109.4712         estimate D2E/DX2                !
 ! A33   A(20,18,21)           109.4712         estimate D2E/DX2                !
 ! A34   L(3,11,12,4,-1)       179.9999         estimate D2E/DX2                !
 ! A35   L(3,11,12,4,-2)       180.0            estimate D2E/DX2                !
 ! D1    D(6,1,2,3)             -0.0001         estimate D2E/DX2                !
 ! D2    D(6,1,2,8)            179.9999         estimate D2E/DX2                !
 ! D3    D(7,1,2,3)            179.9999         estimate D2E/DX2                !
 ! D4    D(7,1,2,8)             -0.0001         estimate D2E/DX2                !
 ! D5    D(2,1,6,5)              0.0            estimate D2E/DX2                !
 ! D6    D(2,1,6,13)          -180.0            estimate D2E/DX2                !
 ! D7    D(7,1,6,5)           -179.9999         estimate D2E/DX2                !
 ! D8    D(7,1,6,13)             0.0001         estimate D2E/DX2                !
 ! D9    D(1,2,3,4)              0.0001         estimate D2E/DX2                !
 ! D10   D(1,2,3,11)          -179.9998         estimate D2E/DX2                !
 ! D11   D(8,2,3,4)           -179.9999         estimate D2E/DX2                !
 ! D12   D(8,2,3,11)             0.0002         estimate D2E/DX2                !
 ! D13   D(2,3,4,5)             -0.0001         estimate D2E/DX2                !
 ! D14   D(2,3,4,9)            179.9999         estimate D2E/DX2                !
 ! D15   D(11,3,4,5)           179.9998         estimate D2E/DX2                !
 ! D16   D(11,3,4,9)            -0.0001         estimate D2E/DX2                !
 ! D17   D(3,4,5,6)              0.0001         estimate D2E/DX2                !
 ! D18   D(3,4,5,10)           179.9999         estimate D2E/DX2                !
 ! D19   D(9,4,5,6)           -180.0            estimate D2E/DX2                !
 ! D20   D(9,4,5,10)            -0.0001         estimate D2E/DX2                !
 ! D21   D(4,5,6,1)              0.0            estimate D2E/DX2                !
 ! D22   D(4,5,6,13)           180.0            estimate D2E/DX2                !
 ! D23   D(10,5,6,1)          -179.9998         estimate D2E/DX2                !
 ! D24   D(10,5,6,13)            0.0002         estimate D2E/DX2                !
 ! D25   D(1,6,13,14)          150.0            estimate D2E/DX2                !
 ! D26   D(1,6,13,18)          -90.0            estimate D2E/DX2                !
 ! D27   D(5,6,13,14)          -30.0            estimate D2E/DX2                !
 ! D28   D(5,6,13,18)           90.0            estimate D2E/DX2                !
 ! D29   D(6,13,14,15)          60.0            estimate D2E/DX2                !
 ! D30   D(6,13,14,16)         180.0            estimate D2E/DX2                !
 ! D31   D(6,13,14,17)         -60.0            estimate D2E/DX2                !
 ! D32   D(18,13,14,15)        -60.0            estimate D2E/DX2                !
 ! D33   D(18,13,14,16)         60.0            estimate D2E/DX2                !
 ! D34   D(18,13,14,17)        180.0            estimate D2E/DX2                !
 ! D35   D(6,13,18,19)          60.0            estimate D2E/DX2                !
 ! D36   D(6,13,18,20)         180.0            estimate D2E/DX2                !
 ! D37   D(6,13,18,21)         -60.0            estimate D2E/DX2                !
 ! D38   D(14,13,18,19)        180.0            estimate D2E/DX2                !
 ! D39   D(14,13,18,20)        -60.0            estimate D2E/DX2                !
 ! D40   D(14,13,18,21)         60.0            estimate D2E/DX2                !
 --------------------------------------------------------------------------------
 Trust Radius=3.00D-01 FncErr=1.00D-07 GrdErr=1.00D-06
 Number of steps in this run= 106 maximum allowed number of steps= 126.
 GradGradGradGradGradGradGradGradGradGradGradGradGradGradGradGradGradGrad

                          Input orientation:                          
 ---------------------------------------------------------------------
 Center     Atomic      Atomic             Coordinates (Angstroms)
 Number     Number       Type             X           Y           Z
 ---------------------------------------------------------------------
      1          6           0       -2.351237   -0.748272    0.080649
      2          6           0       -0.956946   -0.864623    0.160255
      3          6           0       -0.164774    0.283132    0.298257
      4          6           0       -0.766893    1.547238    0.356655
      5          6           0       -2.161184    1.663589    0.277050
      6          6           0       -2.953356    0.515835    0.139047
      7          1           0       -2.956078   -1.624608   -0.024720
      8          1           0       -0.497215   -1.829796    0.115668
      9          1           0       -0.162052    2.423574    0.462024
     10          1           0       -2.620916    2.628762    0.321640
     11          6           0        1.367414    0.155273    0.385732
     12          7           0        2.508198    0.060078    0.450861
     13          7           0       -4.415899    0.637882    0.055545
     14          6           0       -4.853204    1.818478    0.814398
     15          1           0       -4.398083    2.695324    0.403416
     16          1           0       -5.917776    1.907315    0.753618
     17          1           0       -4.562063    1.712141    1.838522
     18          6           0       -4.815878    0.783971   -1.351428
     19          1           0       -4.497567   -0.075374   -1.903790
     20          1           0       -5.880450    0.872808   -1.412208
     21          1           0       -4.360757    1.660817   -1.762410
 ---------------------------------------------------------------------
                    Distance matrix (angstroms):
                    1          2          3          4          5
     1  C    0.000000
     2  C    1.401400   0.000000
     3  C    2.427296   1.401400   0.000000
     4  C    2.802800   2.427296   1.401400   0.000000
     5  C    2.427296   2.802800   2.427296   1.401400   0.000000
     6  C    1.401400   2.427296   2.802800   2.427296   1.401400
     7  H    1.070000   2.146700   3.396345   3.872800   3.396345
     8  H    2.146700   1.070000   2.146700   3.396345   3.872800
     9  H    3.872800   3.396345   2.146700   1.070000   2.146700
    10  H    3.396345   3.872800   3.396345   2.146700   1.070000
    11  C    3.838989   2.548270   1.540000   2.548270   3.838989
    12  N    4.940100   3.598159   2.686600   3.598158   4.940100
    13  N    2.486942   3.772644   4.272800   3.772644   2.486942
    14  C    3.658747   4.775747   4.960349   4.120805   2.749492
    15  H    4.018968   4.957194   4.873462   3.808652   2.466609
    16  H    4.497246   5.713629   5.995194   5.178690   3.794536
    17  H    3.745864   4.738476   4.873462   4.077553   2.864397
    18  C    3.236212   4.460314   4.960349   4.460314   3.236212
    19  H    2.999587   4.173631   4.873462   4.654075   3.638508
    20  H    4.160753   5.452724   5.995194   5.452724   4.160753
    21  H    3.638508   4.654075   4.873462   4.173631   2.999587
                    6          7          8          9         10
     6  C    0.000000
     7  H    2.146700   0.000000
     8  H    3.396345   2.471400   0.000000
     9  H    3.396345   4.942800   4.280590   0.000000
    10  H    2.146700   4.280590   4.942800   2.471400   0.000000
    11  C    4.342800   4.693509   2.736837   2.736837   4.693509
    12  N    5.489400   5.737826   3.566018   3.566016   5.737825
    13  N    1.470000   2.693766   4.631321   4.631321   2.693767
    14  C    2.400500   4.019707   5.724750   4.743123   2.425383
    15  H    2.628174   4.574329   5.981328   4.245143   1.780293
    16  H    3.331921   4.674606   6.614791   5.786182   3.402408
    17  H    2.628174   4.145449   5.660082   4.664866   2.628531
    18  C    2.400500   3.319678   5.256900   5.256900   3.319679
    19  H    2.628174   2.882224   4.812382   5.535206   3.973250
    20  H    3.331921   4.088295   6.214313   6.214313   4.088297
    21  H    2.628174   3.973248   5.535207   4.812382   2.882227
                   11         12         13         14         15
    11  C    0.000000
    12  N    1.146600   0.000000
    13  N    5.812800   6.959400   0.000000
    14  C    6.453378   7.577227   1.470000   0.000000
    15  H    6.300248   7.392123   2.086720   1.070000   0.000000
    16  H    7.501932   8.631395   2.086720   1.070000   1.747303
    17  H    6.300249   7.392124   2.086720   1.070000   1.747303
    18  C    6.453377   7.577226   1.470000   2.400500   2.628174
    19  H    6.300247   7.392122   2.086720   3.331921   3.606919
    20  H    7.501931   8.631394   2.086720   2.628174   2.969085
    21  H    6.300247   7.392122   2.086720   2.628174   2.400500
                   16         17         18         19         20
    16  H    0.000000
    17  H    1.747303   0.000000
    18  C    2.628174   3.331921   0.000000
    19  H    3.606919   4.147803   1.070000   0.000000
    20  H    2.400500   3.606919   1.070000   1.747303   0.000000
    21  H    2.969085   3.606919   1.070000   1.747303   1.747303
                   21
    21  H    0.000000
 Stoichiometry    C9H10N2
 Framework group  C1[X(C9H10N2)]
 Deg. of freedom    57
 Full point group                 C1      NOp   1
 Largest Abelian subgroup         C1      NOp   1
 Largest concise Abelian subgroup C1      NOp   1
                         Standard orientation:                         
 ---------------------------------------------------------------------
 Center     Atomic      Atomic             Coordinates (Angstroms)
 Number     Number       Type             X           Y           Z
 ---------------------------------------------------------------------
      1          6           0       -0.131413    1.316058   -0.424302
      2          6           0        1.263703    1.215701   -0.337699
      3          6           0        1.858836   -0.008676   -0.005071
      4          6           0        1.058852   -1.132696    0.240951
      5          6           0       -0.336264   -1.032339    0.154347
      6          6           0       -0.931397    0.192038   -0.178280
      7          1           0       -0.585811    2.250897   -0.678269
      8          1           0        1.874509    2.073915   -0.525543
      9          1           0        1.513249   -2.067535    0.494918
     10          1           0       -0.947070   -1.890554    0.342188
     11          6           0        3.391931   -0.118957    0.090101
     12          7           0        4.533390   -0.201068    0.160962
     13          7           0       -2.394806    0.297307   -0.269123
     14          6           0       -2.954302   -0.996910   -0.684896
     15          1           0       -2.694513   -1.745367    0.034285
     16          1           0       -4.019504   -0.920285   -0.751020
     17          1           0       -2.556140   -1.267126   -1.640589
     18          6           0       -2.941813    0.668539    1.043839
     19          1           0       -2.534561    1.610588    1.346476
     20          1           0       -4.007016    0.745163    0.977715
     21          1           0       -2.682024   -0.079919    1.763020
 ---------------------------------------------------------------------
 Rotational constants (GHZ):      3.4202353      0.5605821      0.5164084
 Standard basis: 3-21G (6D, 7F)
 There are   119 symmetry adapted basis functions of A   symmetry.
 Integral buffers will be    262144 words long.
 Raffenetti 2 integral format.
 Two-electron integral symmetry is turned on.
   119 basis functions,   195 primitive gaussians,   119 cartesian basis functions
    39 alpha electrons       39 beta electrons
       nuclear repulsion energy       545.8402255254 Hartrees.
 NAtoms=   21 NActive=   21 NUniq=   21 SFac= 7.50D-01 NAtFMM=   80 NAOKFM=F Big=F
 One-electron integrals computed using PRISM.
 NBasis=   119 RedAO= T  NBF=   119
 NBsUse=   119 1.00D-06 NBFU=   119
 Harris functional with IExCor=  402 diagonalized for initial guess.
 ExpMin= 1.83D-01 ExpMax= 2.43D+02 ExpMxC= 2.43D+02 IAcc=1 IRadAn=         1 AccDes= 0.00D+00
 HarFok:  IExCor=  402 AccDes= 0.00D+00 IRadAn=         1 IDoV= 1
 ScaDFX=  1.000000  1.000000  1.000000  1.000000
 FoFCou: FMM=F IPFlag=           0 FMFlag=      100000 FMFlg1=           0
         NFxFlg=           0 DoJE=T BraDBF=F KetDBF=T FulRan=T
         Omega=  0.000000  0.000000  1.000000  0.000000  0.000000 ICntrl=     500 IOpCl=  0
         NMat0=    1 NMatS0=    1 NMatT0=    0 NMatD0=    1 NMtDS0=    0 NMtDT0=    0
         I1Cent=           4 NGrid=           0.
 Petite list used in FoFCou.
 Initial guess orbital symmetries:
       Occupied  (A) (A) (A) (A) (A) (A) (A) (A) (A) (A) (A) (A)
                 (A) (A) (A) (A) (A) (A) (A) (A) (A) (A) (A) (A)
                 (A) (A) (A) (A) (A) (A) (A) (A) (A) (A) (A) (A)
                 (A) (A) (A)
       Virtual   (A) (A) (A) (A) (A) (A) (A) (A) (A) (A) (A) (A)
                 (A) (A) (A) (A) (A) (A) (A) (A) (A) (A) (A) (A)
                 (A) (A) (A) (A) (A) (A) (A) (A) (A) (A) (A) (A)
                 (A) (A) (A) (A) (A) (A) (A) (A) (A) (A) (A) (A)
                 (A) (A) (A) (A) (A) (A) (A) (A) (A) (A) (A) (A)
                 (A) (A) (A) (A) (A) (A) (A) (A) (A) (A) (A) (A)
                 (A) (A) (A) (A) (A) (A) (A) (A)
 The electronic state of the initial guess is 1-A.
 Requested convergence on RMS density matrix=1.00D-08 within 128 cycles.
 Requested convergence on MAX density matrix=1.00D-06.
 Requested convergence on             energy=1.00D-06.
 No special actions if energy rises.
 Keep R1 ints in memory in canonical form, NReq=26662962.
 Integral accuracy reduced to 1.0D-05 until final iterations.
 Initial convergence to 1.0D-05 achieved.  Increase integral accuracy.
 SCF Done:  E(RB3LYP) =  -455.920768852     A.U. after   15 cycles
             Convg  =    0.6770D-08             -V/T =  2.0081

 **********************************************************************

            Population analysis using the SCF density.

 **********************************************************************

 Orbital symmetries:
       Occupied  (A) (A) (A) (A) (A) (A) (A) (A) (A) (A) (A) (A)
                 (A) (A) (A) (A) (A) (A) (A) (A) (A) (A) (A) (A)
                 (A) (A) (A) (A) (A) (A) (A) (A) (A) (A) (A) (A)
                 (A) (A) (A)
       Virtual   (A) (A) (A) (A) (A) (A) (A) (A) (A) (A) (A) (A)
                 (A) (A) (A) (A) (A) (A) (A) (A) (A) (A) (A) (A)
                 (A) (A) (A) (A) (A) (A) (A) (A) (A) (A) (A) (A)
                 (A) (A) (A) (A) (A) (A) (A) (A) (A) (A) (A) (A)
                 (A) (A) (A) (A) (A) (A) (A) (A) (A) (A) (A) (A)
                 (A) (A) (A) (A) (A) (A) (A) (A) (A) (A) (A) (A)
                 (A) (A) (A) (A) (A) (A) (A) (A)
 The electronic state is 1-A.
 Alpha  occ. eigenvalues --  -14.26659 -14.25051 -10.18755 -10.18198 -10.16597
 Alpha  occ. eigenvalues --  -10.15704 -10.15605 -10.14737 -10.14674 -10.14556
 Alpha  occ. eigenvalues --  -10.14419  -0.95386  -0.93182  -0.87660  -0.77539
 Alpha  occ. eigenvalues --   -0.77418  -0.72656  -0.67376  -0.63922  -0.60864
 Alpha  occ. eigenvalues --   -0.56848  -0.50992  -0.50191  -0.48031  -0.46841
 Alpha  occ. eigenvalues --   -0.45626  -0.44663  -0.43055  -0.40969  -0.39867
 Alpha  occ. eigenvalues --   -0.38579  -0.38091  -0.37413  -0.34875  -0.34317
 Alpha  occ. eigenvalues --   -0.34102  -0.27529  -0.27357  -0.22193
 Alpha virt. eigenvalues --   -0.03632  -0.02086   0.04979   0.08223   0.08867
 Alpha virt. eigenvalues --    0.11283   0.13571   0.15298   0.15354   0.16416
 Alpha virt. eigenvalues --    0.17430   0.18347   0.18604   0.19617   0.20860
 Alpha virt. eigenvalues --    0.21164   0.24382   0.25717   0.27385   0.32994
 Alpha virt. eigenvalues --    0.33986   0.35079   0.35560   0.49750   0.53504
 Alpha virt. eigenvalues --    0.57334   0.63647   0.65355   0.65921   0.68460
 Alpha virt. eigenvalues --    0.68988   0.69953   0.71601   0.72079   0.74477
 Alpha virt. eigenvalues --    0.75505   0.76740   0.77768   0.80220   0.81776
 Alpha virt. eigenvalues --    0.83530   0.85080   0.86854   0.91950   0.92290
 Alpha virt. eigenvalues --    0.93930   0.95050   0.99415   1.00261   1.00287
 Alpha virt. eigenvalues --    1.01514   1.05769   1.06658   1.08593   1.13004
 Alpha virt. eigenvalues --    1.15037   1.17066   1.17862   1.19919   1.20802
 Alpha virt. eigenvalues --    1.23241   1.26498   1.30038   1.34491   1.37925
 Alpha virt. eigenvalues --    1.46340   1.47249   1.49977   1.51854   1.53196
 Alpha virt. eigenvalues --    1.54004   1.59636   1.74609   1.81905   1.88284
 Alpha virt. eigenvalues --    1.95120   2.06397   2.45205   2.89482   2.94827
          Condensed to atoms (all electrons):
              1          2          3          4          5          6
     1  C    5.173367   0.433147  -0.080561  -0.019337  -0.097652   0.456309
     2  C    0.433147   5.158778   0.440509  -0.067996  -0.017443  -0.074064
     3  C   -0.080561   0.440509   5.300121   0.448293  -0.083241  -0.025320
     4  C   -0.019337  -0.067996   0.448293   5.148775   0.416118  -0.055482
     5  C   -0.097652  -0.017443  -0.083241   0.416118   5.324137   0.352244
     6  C    0.456309  -0.074064  -0.025320  -0.055482   0.352244   5.120930
     7  H    0.382284  -0.037240   0.003983  -0.000372   0.005045  -0.040091
     8  H   -0.033399   0.392693  -0.040747   0.003451  -0.000139   0.003888
     9  H   -0.000116   0.003439  -0.039821   0.392558  -0.033597   0.003213
    10  H    0.003023  -0.000068   0.003741  -0.037808   0.392649  -0.051928
    11  C    0.003075  -0.059678   0.164800  -0.059146   0.003387  -0.000121
    12  N   -0.000001  -0.000232  -0.083275  -0.000242  -0.000001   0.000000
    13  N   -0.053638   0.002989  -0.000198   0.003843  -0.062930   0.298934
    14  C    0.002661  -0.000140  -0.000006   0.000699  -0.017121  -0.091216
    15  H   -0.000321   0.000018  -0.000003  -0.000519  -0.001937  -0.009729
    16  H   -0.000041   0.000000   0.000000  -0.000001   0.000322   0.004864
    17  H    0.000449  -0.000016  -0.000004  -0.000018   0.000331  -0.001320
    18  C   -0.002908  -0.000078   0.000017   0.000003   0.000335  -0.099155
    19  H    0.002933  -0.000099   0.000002   0.000008  -0.000468  -0.002726
    20  H    0.000048   0.000000   0.000000   0.000003  -0.000185   0.005412
    21  H   -0.000353   0.000045  -0.000012  -0.000295   0.006865  -0.006876
              7          8          9         10         11         12
     1  C    0.382284  -0.033399  -0.000116   0.003023   0.003075  -0.000001
     2  C   -0.037240   0.392693   0.003439  -0.000068  -0.059678  -0.000232
     3  C    0.003983  -0.040747  -0.039821   0.003741   0.164800  -0.083275
     4  C   -0.000372   0.003451   0.392558  -0.037808  -0.059146  -0.000242
     5  C    0.005045  -0.000139  -0.033597   0.392649   0.003387  -0.000001
     6  C   -0.040091   0.003888   0.003213  -0.051928  -0.000121   0.000000
     7  H    0.480933  -0.003852   0.000002  -0.000032  -0.000044   0.000000
     8  H   -0.003852   0.471613  -0.000048   0.000001  -0.004496  -0.000113
     9  H    0.000002  -0.000048   0.472217  -0.003190  -0.004426  -0.000110
    10  H   -0.000032   0.000001  -0.003190   0.482049  -0.000047   0.000000
    11  C   -0.000044  -0.004496  -0.004426  -0.000047   4.844869   0.797478
    12  N    0.000000  -0.000113  -0.000110   0.000000   0.797478   6.761116
    13  N    0.000238  -0.000015  -0.000018  -0.009117   0.000000   0.000000
    14  C   -0.000007   0.000001  -0.000002   0.000559   0.000000   0.000000
    15  H    0.000021   0.000000   0.000016   0.014460   0.000000   0.000000
    16  H   -0.000007   0.000000   0.000000  -0.000068   0.000000   0.000000
    17  H   -0.000020   0.000000  -0.000001  -0.000578   0.000000   0.000000
    18  C    0.000312   0.000001   0.000000  -0.000161   0.000000   0.000000
    19  H    0.000161   0.000001   0.000000  -0.000022   0.000000   0.000000
    20  H   -0.000046   0.000000   0.000000  -0.000032   0.000000   0.000000
    21  H    0.000115   0.000000   0.000003   0.001291   0.000000   0.000000
             13         14         15         16         17         18
     1  C   -0.053638   0.002661  -0.000321  -0.000041   0.000449  -0.002908
     2  C    0.002989  -0.000140   0.000018   0.000000  -0.000016  -0.000078
     3  C   -0.000198  -0.000006  -0.000003   0.000000  -0.000004   0.000017
     4  C    0.003843   0.000699  -0.000519  -0.000001  -0.000018   0.000003
     5  C   -0.062930  -0.017121  -0.001937   0.000322   0.000331   0.000335
     6  C    0.298934  -0.091216  -0.009729   0.004864  -0.001320  -0.099155
     7  H    0.000238  -0.000007   0.000021  -0.000007  -0.000020   0.000312
     8  H   -0.000015   0.000001   0.000000   0.000000   0.000000   0.000001
     9  H   -0.000018  -0.000002   0.000016   0.000000  -0.000001   0.000000
    10  H   -0.009117   0.000559   0.014460  -0.000068  -0.000578  -0.000161
    11  C    0.000000   0.000000   0.000000   0.000000   0.000000   0.000000
    12  N    0.000000   0.000000   0.000000   0.000000   0.000000   0.000000
    13  N    7.034510   0.286815  -0.053560  -0.029789  -0.030088   0.288414
    14  C    0.286815   5.264503   0.324633   0.370412   0.373050  -0.097432
    15  H   -0.053560   0.324633   0.614532  -0.037135  -0.039261  -0.004486
    16  H   -0.029789   0.370412  -0.037135   0.502781  -0.020923  -0.002179
    17  H   -0.030088   0.373050  -0.039261  -0.020923   0.492841   0.004805
    18  C    0.288414  -0.097432  -0.004486  -0.002179   0.004805   5.261521
    19  H   -0.030734   0.004842  -0.000312   0.000062  -0.000115   0.370865
    20  H   -0.030280  -0.002051  -0.001393   0.003905   0.000053   0.365930
    21  H   -0.053561  -0.005298   0.014335  -0.001352  -0.000316   0.332421
             19         20         21
     1  C    0.002933   0.000048  -0.000353
     2  C   -0.000099   0.000000   0.000045
     3  C    0.000002   0.000000  -0.000012
     4  C    0.000008   0.000003  -0.000295
     5  C   -0.000468  -0.000185   0.006865
     6  C   -0.002726   0.005412  -0.006876
     7  H    0.000161  -0.000046   0.000115
     8  H    0.000001   0.000000   0.000000
     9  H    0.000000   0.000000   0.000003
    10  H   -0.000022  -0.000032   0.001291
    11  C    0.000000   0.000000   0.000000
    12  N    0.000000   0.000000   0.000000
    13  N   -0.030734  -0.030280  -0.053561
    14  C    0.004842  -0.002051  -0.005298
    15  H   -0.000312  -0.001393   0.014335
    16  H    0.000062   0.003905  -0.001352
    17  H   -0.000115   0.000053  -0.000316
    18  C    0.370865   0.365930   0.332421
    19  H    0.497893  -0.021815  -0.036006
    20  H   -0.021815   0.510870  -0.038475
    21  H   -0.036006  -0.038475   0.602877
 Mulliken atomic charges:
              1
     1  C   -0.168968
     2  C   -0.174564
     3  C   -0.008278
     4  C   -0.172534
     5  C   -0.186718
     6  C    0.212234
     7  H    0.208618
     8  H    0.211162
     9  H    0.209880
    10  H    0.205279
    11  C    0.314351
    12  N   -0.474618
    13  N   -0.561815
    14  C   -0.414903
    15  H    0.180643
    16  H    0.209149
    17  H    0.221133
    18  C   -0.418226
    19  H    0.215529
    20  H    0.208055
    21  H    0.184594
 Sum of Mulliken atomic charges =   0.00000
 Mulliken charges with hydrogens summed into heavy atoms:
              1
     1  C    0.039650
     2  C    0.036598
     3  C   -0.008278
     4  C    0.037346
     5  C    0.018560
     6  C    0.212234
    11  C    0.314351
    12  N   -0.474618
    13  N   -0.561815
    14  C    0.196021
    18  C    0.189952
 Sum of Mulliken charges with hydrogens summed into heavy atoms =   0.00000
 Electronic spatial extent (au):  <R**2>=           2150.6004
 Charge=              0.0000 electrons
 Dipole moment (field-independent basis, Debye):
    X=             -4.8625    Y=             -0.3711    Z=              0.5142  Tot=              4.9036
 Quadrupole moment (field-independent basis, Debye-Ang):
   XX=            -82.6689   YY=            -58.4648   ZZ=            -67.1286
   XY=              3.7706   XZ=             -3.0748   YZ=             -0.3257
 Traceless Quadrupole moment (field-independent basis, Debye-Ang):
   XX=            -13.2482   YY=             10.9560   ZZ=              2.2922
   XY=              3.7706   XZ=             -3.0748   YZ=             -0.3257
 Octapole moment (field-independent basis, Debye-Ang**2):
  XXX=           -153.8853  YYY=              2.7618  ZZZ=              0.1394  XYY=              1.2540
  XXY=              1.7558  XXZ=              0.3192  XZZ=             -4.8413  YZZ=             -0.6924
  YYZ=              0.0483  XYZ=             -6.6252
 Hexadecapole moment (field-independent basis, Debye-Ang**3):
 XXXX=          -2909.5654 YYYY=           -354.9847 ZZZZ=           -174.7762 XXXY=             50.5108
 XXXZ=            -40.6563 YYYX=             -1.2409 YYYZ=            -10.8554 ZZZX=              2.4539
 ZZZY=              4.5352 XXYY=           -438.1284 XXZZ=           -417.5571 YYZZ=            -93.2221
 XXYZ=             11.5321 YYXZ=             -1.9094 ZZXY=              1.3138
 N-N= 5.458402255254D+02 E-N=-2.148238978667D+03  KE= 4.522569464862D+02
 Calling FoFJK, ICntrl=      2127 FMM=F ISym2X=0 I1Cent= 0 IOpClX= 0 NMat=1 NMatS=1 NMatT=0.
 ***** Axes restored to original set *****
 -------------------------------------------------------------------
 Center     Atomic                   Forces (Hartrees/Bohr)
 Number     Number              X              Y              Z
 -------------------------------------------------------------------
      1        6           0.013644164    0.009853350   -0.000886982
      2        6          -0.008634761    0.006927832   -0.001230631
      3        6           0.049068323   -0.002958710    0.002791926
      4        6          -0.007980459   -0.005608214   -0.000532248
      5        6           0.018103628   -0.014529081    0.000069385
      6        6          -0.010774216   -0.002052154    0.002291059
      7        1          -0.006676958   -0.006056895    0.000150805
      8        1           0.004180809   -0.007923189    0.000045191
      9        1           0.005783616    0.007208284    0.000763721
     10        1           0.002616731    0.006753801    0.000085097
     11        6          -0.103453474    0.008658698   -0.005557043
     12        7           0.046697389   -0.003883787    0.002570711
     13        7           0.020308886   -0.007642772    0.010998162
     14        6          -0.003790922   -0.010205523   -0.001959188
     15        1          -0.000882415    0.023010880   -0.003764935
     16        1          -0.016421108    0.000474755   -0.001313180
     17        1           0.003973948   -0.000970067    0.015408255
     18        6          -0.000047834   -0.007188148    0.004764161
     19        1           0.004270733   -0.012414421   -0.009372020
     20        1          -0.016956402    0.000413739   -0.000866671
     21        1           0.006970323    0.018131626   -0.014455577
 -------------------------------------------------------------------
 Cartesian Forces:  Max     0.103453474 RMS     0.017771336

 GradGradGradGradGradGradGradGradGradGradGradGradGradGradGradGradGradGrad
 Berny optimization.
 Internal  Forces:  Max     0.057035528 RMS     0.011122946
 Search for a local minimum.
 Step number   1 out of a maximum of  106
 All quantities printed in internal units (Hartrees-Bohrs-Radians)
 Mixed Optimization -- RFO/linear search
 Second derivative matrix not updated -- first step.
     Eigenvalues ---    0.00766   0.00766   0.00766   0.01669   0.02070
     Eigenvalues ---    0.02070   0.02070   0.02070   0.02070   0.02070
     Eigenvalues ---    0.02070   0.02070   0.03454   0.05044   0.05044
     Eigenvalues ---    0.07537   0.07537   0.07537   0.07537   0.16000
     Eigenvalues ---    0.16000   0.16000   0.16000   0.16000   0.16000
     Eigenvalues ---    0.16000   0.16000   0.16000   0.16000   0.16276
     Eigenvalues ---    0.17820   0.22000   0.22981   0.24000   0.25000
     Eigenvalues ---    0.25000   0.28519   0.35740   0.35740   0.35740
     Eigenvalues ---    0.37230   0.37230   0.37230   0.37230   0.37230
     Eigenvalues ---    0.37230   0.37230   0.37230   0.37230   0.37230
     Eigenvalues ---    0.41268   0.41640   0.45389   0.45389   0.45389
     Eigenvalues ---    0.45389   1.369801000.000001000.000001000.00000
     Eigenvalues --- 1000.000001000.000001000.000001000.000001000.00000
     Eigenvalues --- 1000.000001000.000001000.000001000.000001000.00000
     Eigenvalues --- 1000.000001000.000001000.000001000.000001000.00000
     Eigenvalues --- 1000.000001000.000001000.000001000.000001000.00000
     Eigenvalues --- 1000.000001000.000001000.000001000.000001000.00000
     Eigenvalues --- 1000.000001000.000001000.000001000.000001000.00000
     Eigenvalues --- 1000.000001000.000001000.000001000.000001000.00000
     Eigenvalues --- 1000.00000
 RFO step:  Lambda=-3.80319356D-02 EMin= 7.65814493D-03
 Linear search not attempted -- first point.
 Maximum step size (   0.300) exceeded in Quadratic search.
    -- Step size scaled by   0.662
 Iteration  1 RMS(Cart)=  0.10505056 RMS(Int)=  0.00473325
 Iteration  2 RMS(Cart)=  0.00754858 RMS(Int)=  0.00050696
 Iteration  3 RMS(Cart)=  0.00004872 RMS(Int)=  0.00050599
 Iteration  4 RMS(Cart)=  0.00000003 RMS(Int)=  0.00050599
 Variable       Old X    -DE/DX   Delta X   Delta X   Delta X     New X
                                 (Linear)    (Quad)   (Total)
    R1        2.64826  -0.00818   0.00000  -0.01123  -0.01122   2.63704
    R2        2.64826  -0.00141   0.00000  -0.00179  -0.00177   2.64649
    R3        2.02201   0.00872   0.00000   0.01408   0.01408   2.03609
    R4        2.64826  -0.00371   0.00000  -0.00532  -0.00533   2.64293
    R5        2.02201   0.00894   0.00000   0.01444   0.01444   2.03645
    R6        2.64826  -0.00486   0.00000  -0.00666  -0.00668   2.64158
    R7        2.91018  -0.05704   0.00000  -0.11689  -0.11689   2.79329
    R8        2.64826  -0.00635   0.00000  -0.00834  -0.00835   2.63991
    R9        2.02201   0.00925   0.00000   0.01493   0.01493   2.03693
   R10        2.64826   0.00626   0.00000   0.00875   0.00876   2.65702
   R11        2.02201   0.00497   0.00000   0.00802   0.00802   2.03003
   R12        2.77790   0.00289   0.00000   0.00483   0.00483   2.78273
   R13        2.16676   0.04693   0.00000   0.02208   0.02208   2.18884
   R14        2.77790   0.01932   0.00000   0.03236   0.03236   2.81026
   R15        2.77790   0.02054   0.00000   0.03440   0.03440   2.81230
   R16        2.02201   0.01993   0.00000   0.03218   0.03218   2.05419
   R17        2.02201   0.01645   0.00000   0.02655   0.02655   2.04856
   R18        2.02201   0.01593   0.00000   0.02571   0.02571   2.04772
   R19        2.02201   0.01607   0.00000   0.02595   0.02595   2.04795
   R20        2.02201   0.01696   0.00000   0.02737   0.02737   2.04938
   R21        2.02201   0.02338   0.00000   0.03774   0.03774   2.05975
    A1        2.09440   0.00563   0.00000   0.01401   0.01403   2.10843
    A2        2.09440  -0.00074   0.00000  -0.00007  -0.00009   2.09431
    A3        2.09440  -0.00489   0.00000  -0.01394  -0.01396   2.08044
    A4        2.09440  -0.00178   0.00000  -0.00585  -0.00585   2.08854
    A5        2.09440   0.00129   0.00000   0.00426   0.00426   2.09865
    A6        2.09440   0.00049   0.00000   0.00159   0.00159   2.09598
    A7        2.09440   0.00239   0.00000   0.00452   0.00449   2.09889
    A8        2.09440  -0.00115   0.00000  -0.00216  -0.00215   2.09224
    A9        2.09440  -0.00124   0.00000  -0.00235  -0.00234   2.09205
   A10        2.09440  -0.00134   0.00000  -0.00351  -0.00354   2.09086
   A11        2.09440  -0.00001   0.00000  -0.00051  -0.00050   2.09389
   A12        2.09440   0.00135   0.00000   0.00403   0.00404   2.09843
   A13        2.09440   0.00297   0.00000   0.00840   0.00841   2.10280
   A14        2.09440  -0.00678   0.00000  -0.02192  -0.02192   2.07247
   A15        2.09440   0.00381   0.00000   0.01351   0.01351   2.10791
   A16        2.09440  -0.00787   0.00000  -0.01757  -0.01755   2.07684
   A17        2.09440  -0.02118   0.00000  -0.04897  -0.04900   2.04539
   A18        2.09440   0.02905   0.00000   0.06654   0.06650   2.16090
   A19        1.91063   0.02064   0.00000   0.09247   0.09161   2.00224
   A20        1.91063  -0.00431   0.00000   0.01015   0.00722   1.91785
   A21        1.91063  -0.00453   0.00000   0.00990   0.00724   1.91787
   A22        1.91063   0.01664   0.00000   0.05904   0.05884   1.96948
   A23        1.91063  -0.00544   0.00000  -0.02263  -0.02257   1.88806
   A24        1.91063  -0.00053   0.00000  -0.00068  -0.00112   1.90951
   A25        1.91063  -0.00668   0.00000  -0.02450  -0.02422   1.88642
   A26        1.91063  -0.00361   0.00000  -0.00319  -0.00381   1.90682
   A27        1.91063  -0.00039   0.00000  -0.00803  -0.00822   1.90241
   A28        1.91063   0.00025   0.00000   0.00000  -0.00010   1.91054
   A29        1.91063  -0.00231   0.00000  -0.00904  -0.00906   1.90157
   A30        1.91063   0.00956   0.00000   0.03413   0.03405   1.94469
   A31        1.91063  -0.00112   0.00000  -0.00803  -0.00808   1.90255
   A32        1.91063  -0.00360   0.00000  -0.00944  -0.00958   1.90106
   A33        1.91063  -0.00278   0.00000  -0.00763  -0.00763   1.90300
   A34        3.14159   0.00002   0.00000   0.00014   0.00014   3.14173
   A35        3.14159   0.00010   0.00000   0.00076   0.00076   3.14235
    D1        0.00000   0.00002   0.00000   0.00003   0.00008   0.00008
    D2        3.14159  -0.00038   0.00000  -0.00437  -0.00438   3.13721
    D3        3.14159   0.00047   0.00000   0.00526   0.00539  -3.13620
    D4        0.00000   0.00008   0.00000   0.00086   0.00093   0.00093
    D5        0.00000   0.00029   0.00000   0.00359   0.00351   0.00351
    D6       -3.14159  -0.00062   0.00000  -0.00738  -0.00702   3.13458
    D7       -3.14159  -0.00017   0.00000  -0.00164  -0.00176   3.13984
    D8        0.00000  -0.00108   0.00000  -0.01261  -0.01228  -0.01228
    D9        0.00000  -0.00020   0.00000  -0.00231  -0.00234  -0.00234
   D10       -3.14159  -0.00022   0.00000  -0.00245  -0.00248   3.13911
   D11       -3.14159   0.00020   0.00000   0.00208   0.00211  -3.13948
   D12        0.00000   0.00017   0.00000   0.00194   0.00197   0.00198
   D13        0.00000   0.00008   0.00000   0.00097   0.00094   0.00094
   D14        3.14159   0.00027   0.00000   0.00314   0.00317  -3.13843
   D15        3.14159   0.00010   0.00000   0.00111   0.00108  -3.14052
   D16        0.00000   0.00029   0.00000   0.00328   0.00331   0.00331
   D17        0.00000   0.00022   0.00000   0.00265   0.00273   0.00273
   D18        3.14159   0.00044   0.00000   0.00508   0.00519  -3.13641
   D19       -3.14159   0.00003   0.00000   0.00048   0.00049  -3.14110
   D20        0.00000   0.00025   0.00000   0.00290   0.00295   0.00295
   D21        0.00000  -0.00041   0.00000  -0.00494  -0.00492  -0.00492
   D22        3.14159   0.00050   0.00000   0.00604   0.00635  -3.13524
   D23       -3.14159  -0.00063   0.00000  -0.00736  -0.00743   3.13417
   D24        0.00000   0.00028   0.00000   0.00362   0.00384   0.00384
   D25        2.61799  -0.00158   0.00000  -0.02929  -0.03001   2.58799
   D26       -1.57080   0.00286   0.00000   0.04567   0.04649  -1.52431
   D27       -0.52360  -0.00249   0.00000  -0.04027  -0.04109  -0.56469
   D28        1.57080   0.00195   0.00000   0.03469   0.03541   1.60620
   D29        1.04720   0.00636   0.00000   0.07707   0.07811   1.12531
   D30        3.14159   0.00504   0.00000   0.06936   0.06985  -3.07174
   D31       -1.04720   0.00091   0.00000   0.04524   0.04576  -1.00144
   D32       -1.04720   0.00178   0.00000   0.00195   0.00162  -1.04557
   D33        1.04720   0.00046   0.00000  -0.00576  -0.00664   1.04056
   D34        3.14159  -0.00366   0.00000  -0.02988  -0.03073   3.11086
   D35        1.04720  -0.00891   0.00000  -0.06019  -0.05968   0.98752
   D36        3.14159  -0.01154   0.00000  -0.07556  -0.07506   3.06653
   D37       -1.04720  -0.01051   0.00000  -0.06953  -0.06911  -1.11631
   D38       -3.14159   0.01095   0.00000   0.06533   0.06489  -3.07670
   D39       -1.04720   0.00832   0.00000   0.04997   0.04951  -0.99769
   D40        1.04720   0.00935   0.00000   0.05599   0.05546   1.10266
         Item               Value     Threshold  Converged?
 Maximum Force            0.057036     0.000450     NO 
 RMS     Force            0.011123     0.000300     NO 
 Maximum Displacement     0.514793     0.001800     NO 
 RMS     Displacement     0.109097     0.001200     NO 
 Predicted change in Energy=-1.858802D-02
 GradGradGradGradGradGradGradGradGradGradGradGradGradGradGradGradGradGrad

                          Input orientation:                          
 ---------------------------------------------------------------------
 Center     Atomic      Atomic             Coordinates (Angstroms)
 Number     Number       Type             X           Y           Z
 ---------------------------------------------------------------------
      1          6           0       -2.335219   -0.680565    0.087750
      2          6           0       -0.952040   -0.853071    0.153860
      3          6           0       -0.120804    0.263727    0.287397
      4          6           0       -0.670588    1.547330    0.351672
      5          6           0       -2.055974    1.713380    0.283236
      6          6           0       -2.902421    0.598212    0.153391
      7          1           0       -2.980856   -1.537583   -0.010115
      8          1           0       -0.525450   -1.841549    0.106535
      9          1           0       -0.025466    2.405050    0.451658
     10          1           0       -2.460002    2.707681    0.329396
     11          6           0        1.344788    0.086173    0.361040
     12          7           0        2.493244   -0.053084    0.418308
     13          7           0       -4.369643    0.688829    0.066941
     14          6           0       -4.969386    1.814105    0.832187
     15          1           0       -4.670500    2.788361    0.453872
     16          1           0       -6.048029    1.739251    0.754109
     17          1           0       -4.684639    1.732845    1.874549
     18          6           0       -4.788890    0.766039   -1.358901
     19          1           0       -4.402408   -0.092258   -1.895958
     20          1           0       -5.872183    0.755323   -1.408577
     21          1           0       -4.420253    1.675347   -1.833568
 ---------------------------------------------------------------------
                    Distance matrix (angstroms):
                    1          2          3          4          5
     1  C    0.000000
     2  C    1.395462   0.000000
     3  C    2.415612   1.398579   0.000000
     4  C    2.793594   2.424926   1.397866   0.000000
     5  C    2.418091   2.796798   2.417932   1.396980   0.000000
     6  C    1.400463   2.431092   2.804858   2.433355   1.406034
     7  H    1.077452   2.147449   3.393099   3.871035   3.392671
     8  H    2.150233   1.077640   2.151427   3.400832   3.874436
     9  H    3.871487   3.400379   2.149729   1.077898   2.151683
    10  H    3.399143   3.870880   3.383271   2.132818   1.074245
    11  C    3.768956   2.490085   1.478144   2.489338   3.770814
    12  N    4.880273   3.546815   2.636429   3.546209   4.882011
    13  N    2.452459   3.750336   4.275739   3.808032   2.539597
    14  C    3.703566   4.869602   5.119494   4.333790   2.966389
    15  H    4.197741   5.213154   5.205883   4.189260   2.832039
    16  H    4.481573   5.748872   6.125927   5.395893   4.019812
    17  H    3.812738   4.855927   5.050341   4.297229   3.072871
    18  C    3.194677   4.430731   4.975303   4.527349   3.326093
    19  H    2.924803   4.084805   4.819325   4.654737   3.676271
    20  H    4.100107   5.407027   6.016340   5.548184   4.282937
    21  H    3.686346   4.729828   4.997642   4.341849   3.173661
                    6          7          8          9         10
     6  C    0.000000
     7  H    2.143480   0.000000
     8  H    3.406556   2.476897   0.000000
     9  H    3.410351   4.948931   4.289837   0.000000
    10  H    2.162538   4.290549   4.948500   2.456318   0.000000
    11  C    4.283000   4.635249   2.697902   2.694995   4.620577
    12  N    5.441284   5.687974   3.522545   3.519579   5.671365
    13  N    1.472558   2.625182   4.602413   4.686715   2.791303
    14  C    2.492290   3.987172   5.799910   4.993633   2.710772
    15  H    2.830750   4.667330   6.223998   4.660823   2.215469
    16  H    3.399659   4.552936   6.613650   6.066798   3.740612
    17  H    2.725083   4.141320   5.762033   4.917761   2.878683
    18  C    2.423625   3.224110   5.208065   5.353007   3.470452
    19  H    2.631833   2.768786   4.701149   5.559270   4.069988
    20  H    3.359154   3.946249   6.134074   6.353438   4.298282
    21  H    2.722507   3.964815   5.594824   5.006884   3.096242
                   11         12         13         14         15
    11  C    0.000000
    12  N    1.158285   0.000000
    13  N    5.753644   6.911810   0.000000
    14  C    6.563271   7.703801   1.487125   0.000000
    15  H    6.595007   7.706770   2.155983   1.087028   0.000000
    16  H    7.585573   8.733761   2.095844   1.084052   1.757373
    17  H    6.430881   7.538713   2.111075   1.083607   1.769926
    18  C    6.406436   7.540485   1.488205   2.435547   2.718446
    19  H    6.177066   7.273746   2.112852   3.376161   3.727136
    20  H    7.460829   8.600663   2.106941   2.637628   3.007657
    21  H    6.370046   7.473612   2.141895   2.725262   2.556131
                   16         17         18         19         20
    16  H    0.000000
    17  H    1.764726   0.000000
    18  C    2.645257   3.376505   0.000000
    19  H    3.617368   4.198497   1.083731   0.000000
    20  H    2.382487   3.625565   1.084485   1.765268   0.000000
    21  H    3.057746   3.717976   1.089973   1.768796   1.770638
                   21
    21  H    0.000000
 Stoichiometry    C9H10N2
 Framework group  C1[X(C9H10N2)]
 Deg. of freedom    57
 Full point group                 C1      NOp   1
 Largest Abelian subgroup         C1      NOp   1
 Largest concise Abelian subgroup C1      NOp   1
                         Standard orientation:                         
 ---------------------------------------------------------------------
 Center     Atomic      Atomic             Coordinates (Angstroms)
 Number     Number       Type             X           Y           Z
 ---------------------------------------------------------------------
      1          6           0       -0.126082    1.245394   -0.434502
      2          6           0        1.266071    1.185737   -0.359252
      3          6           0        1.889412   -0.015898   -0.007766
      4          6           0        1.123486   -1.151811    0.269881
      5          6           0       -0.269856   -1.085047    0.194416
      6          6           0       -0.908088    0.115982   -0.162121
      7          1           0       -0.611642    2.167046   -0.709626
      8          1           0        1.859226    2.059282   -0.574649
      9          1           0        1.608591   -2.074767    0.543174
     10          1           0       -0.842053   -1.966820    0.415929
     11          6           0        3.363866   -0.085197    0.070293
     12          7           0        4.519252   -0.139234    0.131832
     13          7           0       -2.369458    0.270647   -0.256489
     14          6           0       -3.097162   -0.950558   -0.693116
     15          1           0       -3.012360   -1.768959    0.017277
     16          1           0       -4.147082   -0.700474   -0.794577
     17          1           0       -2.716433   -1.271827   -1.655423
     18          6           0       -2.913249    0.745887    1.044739
     19          1           0       -2.423849    1.671546    1.324228
     20          1           0       -3.976977    0.927350    0.936752
     21          1           0       -2.756372    0.010789    1.834081
 ---------------------------------------------------------------------
 Rotational constants (GHZ):      3.4372875      0.5550586      0.5130586
 Standard basis: 3-21G (6D, 7F)
 There are   119 symmetry adapted basis functions of A   symmetry.
 Integral buffers will be    262144 words long.
 Raffenetti 2 integral format.
 Two-electron integral symmetry is turned on.
   119 basis functions,   195 primitive gaussians,   119 cartesian basis functions
    39 alpha electrons       39 beta electrons
       nuclear repulsion energy       543.5128858809 Hartrees.
 NAtoms=   21 NActive=   21 NUniq=   21 SFac= 7.50D-01 NAtFMM=   80 NAOKFM=F Big=F
 One-electron integrals computed using PRISM.
 NBasis=   119 RedAO= T  NBF=   119
 NBsUse=   119 1.00D-06 NBFU=   119
 Initial guess read from the read-write file.
 B after Tr=     0.000000    0.000000    0.000000
         Rot=    1.000000    0.000000    0.000000    0.000000 Ang=   0.00 deg.
 Initial guess orbital symmetries:
       Occupied  (A) (A) (A) (A) (A) (A) (A) (A) (A) (A) (A) (A)
                 (A) (A) (A) (A) (A) (A) (A) (A) (A) (A) (A) (A)
                 (A) (A) (A) (A) (A) (A) (A) (A) (A) (A) (A) (A)
                 (A) (A) (A)
       Virtual   (A) (A) (A) (A) (A) (A) (A) (A) (A) (A) (A) (A)
                 (A) (A) (A) (A) (A) (A) (A) (A) (A) (A) (A) (A)
                 (A) (A) (A) (A) (A) (A) (A) (A) (A) (A) (A) (A)
                 (A) (A) (A) (A) (A) (A) (A) (A) (A) (A) (A) (A)
                 (A) (A) (A) (A) (A) (A) (A) (A) (A) (A) (A) (A)
                 (A) (A) (A) (A) (A) (A) (A) (A) (A) (A) (A) (A)
                 (A) (A) (A) (A) (A) (A) (A) (A)
 Harris functional with IExCor=  402 diagonalized for initial guess.
 ExpMin= 1.83D-01 ExpMax= 2.43D+02 ExpMxC= 2.43D+02 IAcc=1 IRadAn=         1 AccDes= 0.00D+00
 HarFok:  IExCor=  402 AccDes= 0.00D+00 IRadAn=         1 IDoV= 1
 ScaDFX=  1.000000  1.000000  1.000000  1.000000
 FoFCou: FMM=F IPFlag=           0 FMFlag=      100000 FMFlg1=           0
         NFxFlg=           0 DoJE=T BraDBF=F KetDBF=T FulRan=T
         Omega=  0.000000  0.000000  1.000000  0.000000  0.000000 ICntrl=     500 IOpCl=  0
         NMat0=    1 NMatS0=    1 NMatT0=    0 NMatD0=    1 NMtDS0=    0 NMtDT0=    0
         I1Cent=           4 NGrid=           0.
 Petite list used in FoFCou.
 Requested convergence on RMS density matrix=1.00D-08 within 128 cycles.
 Requested convergence on MAX density matrix=1.00D-06.
 Requested convergence on             energy=1.00D-06.
 No special actions if energy rises.
 Keep R1 ints in memory in canonical form, NReq=26663108.
 Integral accuracy reduced to 1.0D-05 until final iterations.
 Initial convergence to 1.0D-05 achieved.  Increase integral accuracy.
 SCF Done:  E(RB3LYP) =  -455.935759234     A.U. after   15 cycles
             Convg  =    0.4125D-08             -V/T =  2.0086
 Calling FoFJK, ICntrl=      2127 FMM=F ISym2X=0 I1Cent= 0 IOpClX= 0 NMat=1 NMatS=1 NMatT=0.
 ***** Axes restored to original set *****
 -------------------------------------------------------------------
 Center     Atomic                   Forces (Hartrees/Bohr)
 Number     Number              X              Y              Z
 -------------------------------------------------------------------
      1        6           0.007852739    0.000905921   -0.001294106
      2        6          -0.008198070    0.001407241   -0.001493702
      3        6           0.034911465   -0.003526906    0.001686871
      4        6          -0.007261861   -0.000602492    0.000180279
      5        6           0.002708910   -0.007265008    0.000727775
      6        6          -0.013345309    0.000643992    0.003581568
      7        1          -0.003458333   -0.001795802    0.000761365
      8        1           0.001749889   -0.002900240    0.000139676
      9        1           0.002220357    0.002470221    0.000230494
     10        1          -0.003154618    0.004787980    0.000348906
     11        6          -0.047895299    0.005861382   -0.002219809
     12        7           0.017927507   -0.002164000    0.000846946
     13        7           0.016009586    0.005110756    0.000557362
     14        6           0.005418541   -0.008241173   -0.001334892
     15        1           0.001711629    0.010195683   -0.002863933
     16        1          -0.006540002   -0.001667013   -0.000331378
     17        1           0.001921335   -0.000557195    0.005926517
     18        6           0.000075974   -0.003905114    0.002917589
     19        1           0.002241024   -0.004776307   -0.003164411
     20        1          -0.006677131   -0.000675425   -0.000013707
     21        1           0.001781667    0.006693497   -0.005189410
 -------------------------------------------------------------------
 Cartesian Forces:  Max     0.047895299 RMS     0.009058368

 GradGradGradGradGradGradGradGradGradGradGradGradGradGradGradGradGradGrad
 Berny optimization.
 Using GEDIIS/GDIIS optimizer.
 Internal  Forces:  Max     0.030226436 RMS     0.004689140
 Search for a local minimum.
 Step number   2 out of a maximum of  106
 All quantities printed in internal units (Hartrees-Bohrs-Radians)
 Mixed Optimization -- RFO/linear search
 Update second derivatives using D2CorX and points    1    2
 DE= -1.50D-02 DEPred=-1.86D-02 R= 8.06D-01
 SS=  1.41D+00  RLast= 3.00D-01 DXNew= 5.0454D-01 8.9963D-01
 Trust test= 8.06D-01 RLast= 3.00D-01 DXMaxT set to 5.05D-01
 Use linear search instead of GDIIS.
     Eigenvalues ---    0.00762   0.00766   0.00779   0.01664   0.02069
     Eigenvalues ---    0.02070   0.02070   0.02070   0.02070   0.02070
     Eigenvalues ---    0.02070   0.02071   0.03394   0.05044   0.05044
     Eigenvalues ---    0.07210   0.07308   0.07577   0.07658   0.15699
     Eigenvalues ---    0.16000   0.16000   0.16000   0.16000   0.16000
     Eigenvalues ---    0.16000   0.16000   0.16000   0.16123   0.18515
     Eigenvalues ---    0.19433   0.21981   0.22402   0.23177   0.24020
     Eigenvalues ---    0.25000   0.28775   0.34540   0.35740   0.36235
     Eigenvalues ---    0.37139   0.37230   0.37230   0.37230   0.37230
     Eigenvalues ---    0.37230   0.37230   0.37230   0.37230   0.40089
     Eigenvalues ---    0.41272   0.44347   0.45297   0.45389   0.45389
     Eigenvalues ---    0.48235   1.347541000.000001000.000001000.00000
     Eigenvalues --- 1000.000001000.000001000.000001000.000001000.00000
     Eigenvalues --- 1000.000001000.000001000.000001000.000001000.00000
     Eigenvalues --- 1000.000001000.000001000.000001000.000001000.00000
     Eigenvalues --- 1000.000001000.000001000.000001000.000001000.00000
     Eigenvalues --- 1000.000001000.000001000.000001000.000001000.00000
     Eigenvalues --- 1000.000001000.000001000.000001000.000001000.00000
     Eigenvalues --- 1000.000001000.000001000.000001000.000001000.00000
     Eigenvalues --- 1000.00000
 RFO step:  Lambda=-9.52851301D-03 EMin= 7.61872827D-03
 Quartic linear search produced a step of  0.49602.
 Iteration  1 RMS(Cart)=  0.10317186 RMS(Int)=  0.00401025
 Iteration  2 RMS(Cart)=  0.00667067 RMS(Int)=  0.00081553
 Iteration  3 RMS(Cart)=  0.00002172 RMS(Int)=  0.00081542
 Iteration  4 RMS(Cart)=  0.00000001 RMS(Int)=  0.00081542
 Variable       Old X    -DE/DX   Delta X   Delta X   Delta X     New X
                                 (Linear)    (Quad)   (Total)
    R1        2.63704  -0.00380  -0.00557  -0.00692  -0.01247   2.62457
    R2        2.64649   0.00051  -0.00088   0.00187   0.00101   2.64750
    R3        2.03609   0.00343   0.00698   0.00702   0.01401   2.05009
    R4        2.64293   0.00344  -0.00264   0.01409   0.01145   2.65438
    R5        2.03645   0.00335   0.00716   0.00653   0.01369   2.05014
    R6        2.64158   0.00276  -0.00331   0.01236   0.00904   2.65062
    R7        2.79329  -0.03023  -0.05798  -0.10055  -0.15853   2.63475
    R8        2.63991  -0.00279  -0.00414  -0.00529  -0.00944   2.63046
    R9        2.03693   0.00331   0.00740   0.00618   0.01358   2.05052
   R10        2.65702  -0.00398   0.00434  -0.01735  -0.01301   2.64401
   R11        2.03003   0.00563   0.00398   0.01822   0.02220   2.05223
   R12        2.78273  -0.01555   0.00240  -0.06478  -0.06238   2.72035
   R13        2.18884   0.01808   0.01095   0.00907   0.02002   2.20886
   R14        2.81026  -0.00048   0.01605  -0.01632  -0.00027   2.80999
   R15        2.81230   0.00580   0.01706   0.00810   0.02517   2.83747
   R16        2.05419   0.01061   0.01596   0.02674   0.04270   2.09689
   R17        2.04856   0.00664   0.01317   0.01389   0.02706   2.07562
   R18        2.04772   0.00625   0.01275   0.01274   0.02549   2.07321
   R19        2.04795   0.00615   0.01287   0.01224   0.02511   2.07306
   R20        2.04938   0.00668   0.01358   0.01366   0.02724   2.07662
   R21        2.05975   0.00845   0.01872   0.01589   0.03461   2.09436
    A1        2.10843   0.00009   0.00696  -0.00618   0.00077   2.10920
    A2        2.09431   0.00167  -0.00004   0.01520   0.01510   2.10941
    A3        2.08044  -0.00177  -0.00692  -0.00908  -0.01605   2.06439
    A4        2.08854  -0.00040  -0.00290   0.00167  -0.00128   2.08726
    A5        2.09865   0.00068   0.00211   0.00279   0.00482   2.10348
    A6        2.09598  -0.00028   0.00079  -0.00453  -0.00383   2.09216
    A7        2.09889  -0.00159   0.00223  -0.00871  -0.00650   2.09239
    A8        2.09224   0.00087  -0.00107   0.00475   0.00368   2.09592
    A9        2.09205   0.00072  -0.00116   0.00395   0.00278   2.09484
   A10        2.09086   0.00037  -0.00175   0.00466   0.00287   2.09372
   A11        2.09389  -0.00048  -0.00025  -0.00403  -0.00428   2.08961
   A12        2.09843   0.00012   0.00200  -0.00064   0.00136   2.09980
   A13        2.10280   0.00002   0.00417  -0.00523  -0.00108   2.10172
   A14        2.07247   0.00111  -0.01087   0.01962   0.00875   2.08122
   A15        2.10791  -0.00113   0.00670  -0.01438  -0.00767   2.10024
   A16        2.07684   0.00151  -0.00871   0.01381   0.00510   2.08194
   A17        2.04539   0.00076  -0.02431   0.02661   0.00228   2.04768
   A18        2.16090  -0.00227   0.03299  -0.04044  -0.00748   2.15341
   A19        2.00224  -0.00326   0.04544  -0.03067   0.00985   2.01209
   A20        1.91785   0.00308   0.00358   0.05498   0.05448   1.97234
   A21        1.91787   0.00270   0.00359   0.04808   0.04752   1.96539
   A22        1.96948   0.00283   0.02919   0.00418   0.03327   2.00275
   A23        1.88806  -0.00180  -0.01120  -0.00887  -0.02007   1.86799
   A24        1.90951  -0.00066  -0.00056  -0.00644  -0.00739   1.90212
   A25        1.88642  -0.00013  -0.01201   0.01077  -0.00098   1.88544
   A26        1.90682  -0.00056  -0.00189   0.00182  -0.00049   1.90634
   A27        1.90241   0.00027  -0.00408  -0.00151  -0.00591   1.89650
   A28        1.91054  -0.00032  -0.00005  -0.00389  -0.00410   1.90644
   A29        1.90157  -0.00108  -0.00449  -0.00764  -0.01219   1.88938
   A30        1.94469   0.00304   0.01689   0.01568   0.03250   1.97719
   A31        1.90255  -0.00012  -0.00401  -0.00408  -0.00822   1.89433
   A32        1.90106  -0.00090  -0.00475  -0.00019  -0.00511   1.89594
   A33        1.90300  -0.00066  -0.00378  -0.00021  -0.00397   1.89903
   A34        3.14173   0.00001   0.00007   0.00019   0.00026   3.14199
   A35        3.14235   0.00005   0.00038   0.00111   0.00148   3.14383
    D1        0.00008   0.00031   0.00004   0.01474   0.01477   0.01485
    D2        3.13721  -0.00010  -0.00217  -0.00470  -0.00698   3.13024
    D3       -3.13620   0.00058   0.00268   0.02765   0.03049  -3.10571
    D4        0.00093   0.00017   0.00046   0.00821   0.00875   0.00968
    D5        0.00351  -0.00028   0.00174  -0.01386  -0.01220  -0.00869
    D6        3.13458  -0.00035  -0.00348  -0.01627  -0.01965   3.11493
    D7        3.13984  -0.00055  -0.00087  -0.02660  -0.02744   3.11240
    D8       -0.01228  -0.00061  -0.00609  -0.02901  -0.03489  -0.04717
    D9       -0.00234  -0.00006  -0.00116  -0.00309  -0.00425  -0.00659
   D10        3.13911  -0.00024  -0.00123  -0.01138  -0.01263   3.12649
   D11       -3.13948   0.00034   0.00105   0.01629   0.01733  -3.12215
   D12        0.00198   0.00017   0.00098   0.00800   0.00896   0.01093
   D13        0.00094  -0.00019   0.00047  -0.00910  -0.00867  -0.00773
   D14       -3.13843  -0.00003   0.00157  -0.00154   0.00002  -3.13841
   D15       -3.14052  -0.00001   0.00054  -0.00081  -0.00030  -3.14082
   D16        0.00331   0.00014   0.00164   0.00675   0.00838   0.01169
   D17        0.00273   0.00020   0.00135   0.00986   0.01125   0.01398
   D18       -3.13641   0.00008   0.00257   0.00376   0.00637  -3.13004
   D19       -3.14110   0.00004   0.00024   0.00228   0.00251  -3.13859
   D20        0.00295  -0.00007   0.00146  -0.00383  -0.00237   0.00057
   D21       -0.00492   0.00003  -0.00244   0.00149  -0.00093  -0.00584
   D22       -3.13524   0.00007   0.00315   0.00361   0.00693  -3.12831
   D23        3.13417   0.00015  -0.00368   0.00777   0.00403   3.13820
   D24        0.00384   0.00020   0.00191   0.00989   0.01189   0.01573
   D25        2.58799  -0.00037  -0.01488   0.08147   0.06622   2.65421
   D26       -1.52431   0.00326   0.02306   0.16677   0.19024  -1.33406
   D27       -0.56469  -0.00041  -0.02038   0.07932   0.05853  -0.50616
   D28        1.60620   0.00322   0.01756   0.16462   0.18255   1.78876
   D29        1.12531   0.00249   0.03874   0.08583   0.12506   1.25036
   D30       -3.07174   0.00286   0.03465   0.09590   0.13052  -2.94122
   D31       -1.00144   0.00177   0.02270   0.08528   0.10817  -0.89327
   D32       -1.04557  -0.00134   0.00081  -0.00312  -0.00227  -1.04784
   D33        1.04056  -0.00096  -0.00329   0.00695   0.00320   1.04376
   D34        3.11086  -0.00206  -0.01524  -0.00367  -0.01915   3.09171
   D35        0.98752   0.00020  -0.02960  -0.04051  -0.07091   0.91661
   D36        3.06653  -0.00079  -0.03723  -0.05232  -0.09029   2.97625
   D37       -1.11631  -0.00041  -0.03428  -0.04775  -0.08291  -1.19922
   D38       -3.07670   0.00021   0.03219  -0.00504   0.02796  -3.04874
   D39       -0.99769  -0.00078   0.02456  -0.01685   0.00859  -0.98910
   D40        1.10266  -0.00040   0.02751  -0.01228   0.01596   1.11862
         Item               Value     Threshold  Converged?
 Maximum Force            0.030226     0.000450     NO 
 RMS     Force            0.004689     0.000300     NO 
 Maximum Displacement     0.303039     0.001800     NO 
 RMS     Displacement     0.105560     0.001200     NO 
 Predicted change in Energy=-4.775320D-03
 GradGradGradGradGradGradGradGradGradGradGradGradGradGradGradGradGradGrad

                          Input orientation:                          
 ---------------------------------------------------------------------
 Center     Atomic      Atomic             Coordinates (Angstroms)
 Number     Number       Type             X           Y           Z
 ---------------------------------------------------------------------
      1          6           0       -2.331575   -0.643600    0.016403
      2          6           0       -0.957330   -0.836174    0.073930
      3          6           0       -0.111441    0.263450    0.293719
      4          6           0       -0.657971    1.546320    0.445298
      5          6           0       -2.035842    1.728484    0.368476
      6          6           0       -2.884165    0.636097    0.157143
      7          1           0       -3.005860   -1.482566   -0.119251
      8          1           0       -0.535754   -1.830872   -0.025219
      9          1           0       -0.001925    2.394390    0.612019
     10          1           0       -2.445689    2.728329    0.476732
     11          6           0        1.268418    0.079325    0.371342
     12          7           0        2.425270   -0.075301    0.435051
     13          7           0       -4.315035    0.753256    0.051409
     14          6           0       -4.917000    1.885079    0.804893
     15          1           0       -4.714075    2.888416    0.376631
     16          1           0       -6.004252    1.729182    0.805208
     17          1           0       -4.557775    1.855189    1.841080
     18          6           0       -4.807077    0.676205   -1.365111
     19          1           0       -4.404473   -0.227660   -1.838806
     20          1           0       -5.903251    0.601492   -1.345140
     21          1           0       -4.519915    1.554502   -1.977026
 ---------------------------------------------------------------------
                    Distance matrix (angstroms):
                    1          2          3          4          5
     1  C    0.000000
     2  C    1.388864   0.000000
     3  C    2.414257   1.404639   0.000000
     4  C    2.789382   2.429776   1.402650   0.000000
     5  C    2.416235   2.797752   2.419758   1.391982   0.000000
     6  C    1.400996   2.426356   2.800985   2.422288   1.399151
     7  H    1.084863   2.156761   3.405405   3.873688   3.389640
     8  H    2.153211   1.084887   2.160544   3.412001   3.882560
     9  H    3.874455   3.411581   2.157362   1.085087   2.153964
    10  H    3.405118   3.883703   3.399682   2.143378   1.085995
    11  C    3.688977   2.424984   1.394252   2.422502   3.692948
    12  N    4.808930   3.485875   2.563129   3.483696   4.812442
    13  N    2.426220   3.714967   4.238965   3.762740   2.499264
    14  C    3.701399   4.859888   5.097487   4.287586   2.918228
    15  H    4.275652   5.298804   5.299203   4.272928   2.918636
    16  H    4.443069   5.708524   6.093867   5.361501   3.992370
    17  H    3.811740   4.830058   4.969693   4.153563   2.923143
    18  C    3.127072   4.379347   4.997107   4.609746   3.434000
    19  H    2.812778   3.988940   4.818607   4.732908   3.782725
    20  H    4.020065   5.342544   6.028697   5.622395   4.377607
    21  H    3.687038   4.755393   5.124231   4.558764   3.420858
                    6          7          8          9         10
     6  C    0.000000
     7  H    2.140079   0.000000
     8  H    3.410899   2.496314   0.000000
     9  H    3.406730   4.958747   4.306261   0.000000
    10  H    2.161442   4.289595   4.968513   2.470182   0.000000
    11  C    4.195214   4.577078   2.657282   2.651645   4.563214
    12  N    5.364087   5.637803   3.472973   3.467271   5.620349
    13  N    1.439546   2.596529   4.578925   4.648711   2.752501
    14  C    2.472236   3.980896   5.804541   4.945155   2.631755
    15  H    2.910272   4.719044   6.315973   4.743819   2.276229
    16  H    3.368941   4.490023   6.577846   6.042165   3.710736
    17  H    2.668857   4.170366   5.766002   4.749432   2.661715
    18  C    2.452846   3.075198   5.130784   5.472722   3.630393
    19  H    2.653531   2.547112   4.563592   5.680151   4.235141
    20  H    3.372377   3.773722   6.038924   6.470749   4.449425
    21  H    2.841447   3.868782   5.580667   5.274543   3.420703
                   11         12         13         14         15
    11  C    0.000000
    12  N    1.168878   0.000000
    13  N    5.633070   6.801867   0.000000
    14  C    6.458181   7.608469   1.486984   0.000000
    15  H    6.609178   7.730283   2.196340   1.109626   0.000000
    16  H    7.470073   8.628443   2.091435   1.098372   1.786633
    17  H    6.265648   7.380152   2.115680   1.097097   1.799054
    18  C    6.346902   7.490807   1.501523   2.486438   2.817125
    19  H    6.095957   7.199933   2.131457   3.422790   3.835876
    20  H    7.392686   8.543500   2.120333   2.691268   3.099783
    21  H    6.418394   7.530603   2.190552   2.829492   2.712329
                   16         17         18         19         20
    16  H    0.000000
    17  H    1.783593   0.000000
    18  C    2.693004   3.425174   0.000000
    19  H    3.657777   4.231232   1.097018   0.000000
    20  H    2.430201   3.678867   1.098899   1.782564   0.000000
    21  H    3.158258   3.830115   1.108290   1.791238   1.794749
                   21
    21  H    0.000000
 Stoichiometry    C9H10N2
 Framework group  C1[X(C9H10N2)]
 Deg. of freedom    57
 Full point group                 C1      NOp   1
 Largest Abelian subgroup         C1      NOp   1
 Largest concise Abelian subgroup C1      NOp   1
                         Standard orientation:                         
 ---------------------------------------------------------------------
 Center     Atomic      Atomic             Coordinates (Angstroms)
 Number     Number       Type             X           Y           Z
 ---------------------------------------------------------------------
      1          6           0       -0.130050    1.211708   -0.453154
      2          6           0        1.255661    1.180320   -0.365053
      3          6           0        1.900605   -0.012824    0.000277
      4          6           0        1.142810   -1.159363    0.280670
      5          6           0       -0.246263   -1.110144    0.205398
      6          6           0       -0.894165    0.073305   -0.165135
      7          1           0       -0.647533    2.112601   -0.765455
      8          1           0        1.842742    2.062005   -0.599461
      9          1           0        1.643552   -2.078889    0.565527
     10          1           0       -0.821996   -2.001776    0.435417
     11          6           0        3.292058   -0.060869    0.074364
     12          7           0        4.458555   -0.100350    0.137618
     13          7           0       -2.325723    0.200029   -0.248047
     14          6           0       -3.055898   -1.051783   -0.581113
     15          1           0       -3.080685   -1.805665    0.232717
     16          1           0       -4.091284   -0.768125   -0.813351
     17          1           0       -2.605775   -1.500314   -1.475446
     18          6           0       -2.920271    0.919567    0.928112
     19          1           0       -2.402127    1.876654    1.065802
     20          1           0       -3.977591    1.123126    0.708529
     21          1           0       -2.856048    0.343130    1.872518
 ---------------------------------------------------------------------
 Rotational constants (GHZ):      3.3987977      0.5700418      0.5192079
 Standard basis: 3-21G (6D, 7F)
 There are   119 symmetry adapted basis functions of A   symmetry.
 Integral buffers will be    262144 words long.
 Raffenetti 2 integral format.
 Two-electron integral symmetry is turned on.
   119 basis functions,   195 primitive gaussians,   119 cartesian basis functions
    39 alpha electrons       39 beta electrons
       nuclear repulsion energy       545.8152473212 Hartrees.
 NAtoms=   21 NActive=   21 NUniq=   21 SFac= 7.50D-01 NAtFMM=   80 NAOKFM=F Big=F
 One-electron integrals computed using PRISM.
 NBasis=   119 RedAO= T  NBF=   119
 NBsUse=   119 1.00D-06 NBFU=   119
 Initial guess read from the read-write file.
 B after Tr=     0.000000    0.000000    0.000000
         Rot=    1.000000    0.000000    0.000000    0.000000 Ang=   0.00 deg.
 Initial guess orbital symmetries:
       Occupied  (A) (A) (A) (A) (A) (A) (A) (A) (A) (A) (A) (A)
                 (A) (A) (A) (A) (A) (A) (A) (A) (A) (A) (A) (A)
                 (A) (A) (A) (A) (A) (A) (A) (A) (A) (A) (A) (A)
                 (A) (A) (A)
       Virtual   (A) (A) (A) (A) (A) (A) (A) (A) (A) (A) (A) (A)
                 (A) (A) (A) (A) (A) (A) (A) (A) (A) (A) (A) (A)
                 (A) (A) (A) (A) (A) (A) (A) (A) (A) (A) (A) (A)
                 (A) (A) (A) (A) (A) (A) (A) (A) (A) (A) (A) (A)
                 (A) (A) (A) (A) (A) (A) (A) (A) (A) (A) (A) (A)
                 (A) (A) (A) (A) (A) (A) (A) (A) (A) (A) (A) (A)
                 (A) (A) (A) (A) (A) (A) (A) (A)
 Harris functional with IExCor=  402 diagonalized for initial guess.
 ExpMin= 1.83D-01 ExpMax= 2.43D+02 ExpMxC= 2.43D+02 IAcc=1 IRadAn=         1 AccDes= 0.00D+00
 HarFok:  IExCor=  402 AccDes= 0.00D+00 IRadAn=         1 IDoV= 1
 ScaDFX=  1.000000  1.000000  1.000000  1.000000
 FoFCou: FMM=F IPFlag=           0 FMFlag=      100000 FMFlg1=           0
[...]
      9          1           0       -0.043358    2.092474    1.478903
     10          1           0       -2.424238    2.558508    1.215380
     11          6           0        1.317865    0.014774    0.470458
     12          7           0        2.457620   -0.203176    0.599790
     13          7           0       -4.192862    1.070132   -0.154338
     14          6           0       -4.794027    2.260605    0.465488
     15          1           0       -4.338865    3.185186    0.086388
     16          1           0       -5.858355    2.279020    0.226523
     17          1           0       -4.685550    2.243900    1.558046
     18          6           0       -5.037896    0.156816   -0.938237
     19          1           0       -5.045324   -0.853630   -0.508493
     20          1           0       -6.060034    0.538229   -0.935982
     21          1           0       -4.697358    0.087646   -1.979855
 ---------------------------------------------------------------------
                    Distance matrix (angstroms):
                    1          2          3          4          5
     1  C    0.000000
     2  C    1.384683   0.000000
     3  C    2.430398   1.406821   0.000000
     4  C    2.785532   2.413678   1.406888   0.000000
     5  C    2.420353   2.785544   2.430412   1.384627   0.000000
     6  C    1.418603   2.443728   2.847975   2.443738   1.418688
     7  H    1.080502   2.126848   3.398618   3.865861   3.408500
     8  H    2.139004   1.083320   2.154871   3.396732   3.868864
     9  H    3.868855   3.396684   2.154871   1.083323   2.139017
    10  H    3.408446   3.865867   3.398680   2.126862   1.080494
    11  C    3.730305   2.460220   1.420837   2.460207   3.730259
    12  N    4.849641   3.524634   2.588429   3.524409   4.849435
    13  N    2.438514   3.703837   4.224715   3.703787   2.438510
    14  C    3.784256   4.912800   5.125442   4.242899   2.858435
    15  H    4.146165   5.134798   5.169249   4.163817   2.852603
    16  H    4.531410   5.771485   6.125226   5.313488   3.929797
    17  H    4.146023   5.134564   5.168879   4.163310   2.852072
    18  C    2.858524   4.243045   5.125500   4.912793   3.784264
    19  H    2.852840   4.164157   5.169546   5.135027   4.146366
    20  H    3.929880   5.313624   6.125262   5.771434   4.531379
    21  H    2.852095   4.163367   5.168801   5.134432   4.145914
                    6          7          8          9         10
     6  C    0.000000
     7  H    2.170302   0.000000
     8  H    3.420835   2.440190   0.000000
     9  H    3.420901   4.949169   4.293880   0.000000
    10  H    2.170317   4.317639   4.949173   2.440332   0.000000
    11  C    4.268813   4.585719   2.680958   2.680807   4.585720
    12  N    5.436404   5.642788   3.507356   3.506813   5.642552
    13  N    1.376740   2.687031   4.575037   4.575045   2.686898
    14  C    2.469424   4.151946   5.876600   4.860466   2.503394
    15  H    2.802898   4.635111   6.135609   4.645911   2.309360
    16  H    3.355364   4.683041   6.666928   5.951256   3.584566
    17  H    2.802652   4.635084   6.135429   4.645335   2.308664
    18  C    2.469403   2.503648   4.860552   5.876627   4.151794
    19  H    2.803018   2.309641   4.646171   6.135872   4.635139
    20  H    3.355344   3.584830   5.951344   6.666913   4.682830
    21  H    2.802516   2.308923   4.645349   6.135312   4.634842
                   11         12         13         14         15
    11  C    0.000000
    12  N    1.167591   0.000000
    13  N    5.645553   6.813144   0.000000
    14  C    6.511453   7.659937   1.470650   0.000000
    15  H    6.495970   7.611622   2.133710   1.098062   0.000000
    16  H    7.528908   8.686545   2.092925   1.090980   1.774718
    17  H    6.495602   7.611262   2.133713   1.098057   1.781007
    18  C    6.511552   7.660149   1.470621   2.540835   3.272541
    19  H    6.496357   7.612198   2.133771   3.272652   4.143066
    20  H    7.528976   8.686697   2.092897   2.556065   3.318741
    21  H    6.495557   7.611364   2.133613   3.272735   3.740672
                   16         17         18         19         20
    16  H    0.000000
    17  H    1.774728   0.000000
    18  C    2.556085   3.272842   0.000000
    19  H    3.318850   3.740951   1.098060   0.000000
    20  H    2.102961   3.319442   1.090984   1.774726   0.000000
    21  H    3.319358   4.143225   1.098052   1.781007   1.774705
                   21
    21  H    0.000000
 Stoichiometry    C9H10N2
 Framework group  C1[X(C9H10N2)]
 Deg. of freedom    57
 Full point group                 C1      NOp   1
 Largest Abelian subgroup         C1      NOp   1
 Largest concise Abelian subgroup C1      NOp   1
                         Standard orientation:                         
 ---------------------------------------------------------------------
 Center     Atomic      Atomic             Coordinates (Angstroms)
 Number     Number       Type             X           Y           Z
 ---------------------------------------------------------------------
      1          6           0       -0.182043    1.210220   -0.000078
      2          6           0        1.202636    1.206919   -0.000076
      3          6           0        1.925682    0.000126   -0.000036
      4          6           0        1.202659   -1.206759   -0.000073
      5          6           0       -0.181964   -1.210133   -0.000084
      6          6           0       -0.922293    0.000069   -0.000063
      7          1           0       -0.699271    2.158883   -0.000150
      8          1           0        1.740891    2.147059   -0.000087
      9          1           0        1.741056   -2.146821   -0.000057
     10          1           0       -0.699247   -2.158756   -0.000062
     11          6           0        3.346520    0.000087    0.000051
     12          7           0        4.514111   -0.000217    0.000146
     13          7           0       -2.299033   -0.000029   -0.000015
     14          6           0       -3.039761   -1.270514    0.000064
     15          1           0       -2.810260   -1.870294    0.890755
     16          1           0       -4.108565   -1.051660   -0.000237
     17          1           0       -2.809815   -1.870674   -0.890252
     18          6           0       -3.039935    1.270322    0.000079
     19          1           0       -2.810739    1.870277   -0.890572
     20          1           0       -4.108708    1.051301    0.000611
     21          1           0       -2.809899    1.870378    0.890435
 ---------------------------------------------------------------------
 Rotational constants (GHZ):      3.4367358      0.5743885      0.4952200

 **********************************************************************

            Population analysis using the SCF density.

 **********************************************************************

 Orbital symmetries:
       Occupied  (A) (A) (A) (A) (A) (A) (A) (A) (A) (A) (A) (A)
                 (A) (A) (A) (A) (A) (A) (A) (A) (A) (A) (A) (A)
                 (A) (A) (A) (A) (A) (A) (A) (A) (A) (A) (A) (A)
                 (A) (A) (A)
       Virtual   (A) (A) (A) (A) (A) (A) (A) (A) (A) (A) (A) (A)
                 (A) (A) (A) (A) (A) (A) (A) (A) (A) (A) (A) (A)
                 (A) (A) (A) (A) (A) (A) (A) (A) (A) (A) (A) (A)
                 (A) (A) (A) (A) (A) (A) (A) (A) (A) (A) (A) (A)
                 (A) (A) (A) (A) (A) (A) (A) (A) (A) (A) (A) (A)
                 (A) (A) (A) (A) (A) (A) (A) (A) (A) (A) (A) (A)
                 (A) (A) (A) (A) (A) (A) (A) (A)
 The electronic state is 1-A.
 Alpha  occ. eigenvalues --  -14.29553 -14.23513 -10.18711 -10.17297 -10.17248
 Alpha  occ. eigenvalues --  -10.15489 -10.14720 -10.14399 -10.14380 -10.13406
 Alpha  occ. eigenvalues --  -10.13383  -0.96546  -0.90746  -0.86436  -0.77564
 Alpha  occ. eigenvalues --   -0.76770  -0.73982  -0.69654  -0.62370  -0.61215
 Alpha  occ. eigenvalues --   -0.56316  -0.52801  -0.50697  -0.48047  -0.46495
 Alpha  occ. eigenvalues --   -0.44533  -0.44190  -0.42682  -0.42383  -0.40270
 Alpha  occ. eigenvalues --   -0.40078  -0.39491  -0.35851  -0.34647  -0.33009
 Alpha  occ. eigenvalues --   -0.31638  -0.28711  -0.26514  -0.20163
 Alpha virt. eigenvalues --   -0.01956  -0.00469   0.05811   0.08830   0.10383
 Alpha virt. eigenvalues --    0.10401   0.12638   0.13190   0.16151   0.16580
 Alpha virt. eigenvalues --    0.17318   0.17457   0.17701   0.19507   0.19558
 Alpha virt. eigenvalues --    0.23685   0.23903   0.25114   0.29266   0.33257
 Alpha virt. eigenvalues --    0.35472   0.38041   0.39073   0.51702   0.53300
 Alpha virt. eigenvalues --    0.59326   0.62893   0.64209   0.64938   0.68550
 Alpha virt. eigenvalues --    0.68774   0.71623   0.71639   0.73842   0.75680
 Alpha virt. eigenvalues --    0.76808   0.78205   0.78943   0.80192   0.82660
 Alpha virt. eigenvalues --    0.85273   0.85394   0.88153   0.90571   0.94746
 Alpha virt. eigenvalues --    0.94965   0.95724   0.96873   0.98128   0.99286
 Alpha virt. eigenvalues --    1.00169   1.00267   1.03055   1.06387   1.13136
 Alpha virt. eigenvalues --    1.16456   1.16713   1.20122   1.21601   1.22539
 Alpha virt. eigenvalues --    1.25648   1.27370   1.29125   1.30749   1.37996
 Alpha virt. eigenvalues --    1.39166   1.49952   1.50540   1.52491   1.54230
 Alpha virt. eigenvalues --    1.62383   1.70282   1.78220   1.81484   1.90810
 Alpha virt. eigenvalues --    1.92235   2.11425   2.45804   2.92090   2.99492
          Condensed to atoms (all electrons):
              1          2          3          4          5          6
     1  C    5.202550   0.453083  -0.082031  -0.032077  -0.050121   0.404625
     2  C    0.453083   5.110183   0.446601  -0.054163  -0.032079  -0.053128
     3  C   -0.082031   0.446601   5.440287   0.446592  -0.082025  -0.028957
     4  C   -0.032077  -0.054163   0.446592   5.110210   0.453094  -0.053132
     5  C   -0.050121  -0.032079  -0.082025   0.453094   5.202545   0.404616
     6  C    0.404625  -0.053128  -0.028957  -0.053132   0.404616   4.897522
     7  H    0.390654  -0.039623   0.004358  -0.000199   0.003753  -0.047876
     8  H   -0.035554   0.393278  -0.041909   0.003578  -0.000105   0.003767
     9  H   -0.000105   0.003578  -0.041912   0.393278  -0.035553   0.003767
    10  H    0.003753  -0.000198   0.004357  -0.039620   0.390649  -0.047872
    11  C    0.004450  -0.075116   0.062128  -0.075157   0.004454  -0.000180
    12  N    0.000001  -0.000619  -0.116609  -0.000622   0.000001   0.000000
    13  N   -0.057529   0.004494  -0.000363   0.004495  -0.057516   0.259112
    14  C    0.001515  -0.000102   0.000009   0.000109  -0.005165  -0.066002
    15  H    0.000123   0.000000  -0.000005  -0.000010   0.001797  -0.001265
    16  H   -0.000053   0.000001   0.000000  -0.000003   0.000270   0.003087
    17  H    0.000123   0.000000  -0.000005  -0.000010   0.001796  -0.001268
    18  C   -0.005158   0.000109   0.000009  -0.000102   0.001516  -0.066005
    19  H    0.001796  -0.000010  -0.000004   0.000000   0.000123  -0.001265
    20  H    0.000269  -0.000003   0.000000   0.000001  -0.000053   0.003087
    21  H    0.001799  -0.000010  -0.000005   0.000000   0.000124  -0.001269
              7          8          9         10         11         12
     1  C    0.390654  -0.035554  -0.000105   0.003753   0.004450   0.000001
     2  C   -0.039623   0.393278   0.003578  -0.000198  -0.075116  -0.000619
     3  C    0.004358  -0.041909  -0.041912   0.004357   0.062128  -0.116609
     4  C   -0.000199   0.003578   0.393278  -0.039620  -0.075157  -0.000622
     5  C    0.003753  -0.000105  -0.035553   0.390649   0.004454   0.000001
     6  C   -0.047876   0.003767   0.003767  -0.047872  -0.000180   0.000000
     7  H    0.505457  -0.004311   0.000002  -0.000043  -0.000072   0.000000
     8  H   -0.004311   0.486117  -0.000052   0.000002  -0.005577  -0.000087
     9  H    0.000002  -0.000052   0.486113  -0.004310  -0.005578  -0.000087
    10  H   -0.000043   0.000002  -0.004310   0.505447  -0.000072   0.000000
    11  C   -0.000072  -0.005577  -0.005578  -0.000072   4.994769   0.821507
    12  N    0.000000  -0.000087  -0.000087   0.000000   0.821507   6.791726
    13  N   -0.007413  -0.000015  -0.000015  -0.007415  -0.000001   0.000000
    14  C   -0.000009   0.000000  -0.000003   0.003793   0.000000   0.000000
    15  H   -0.000002   0.000000   0.000000   0.000658   0.000000   0.000000
    16  H   -0.000001   0.000000   0.000000   0.000082   0.000000   0.000000
    17  H   -0.000002   0.000000   0.000000   0.000661   0.000000   0.000000
    18  C    0.003792  -0.000003   0.000000  -0.000009   0.000000   0.000000
    19  H    0.000659   0.000000   0.000000  -0.000002   0.000000   0.000000
    20  H    0.000082   0.000000   0.000000  -0.000001   0.000000   0.000000
    21  H    0.000660   0.000000   0.000000  -0.000002   0.000000   0.000000
             13         14         15         16         17         18
     1  C   -0.057529   0.001515   0.000123  -0.000053   0.000123  -0.005158
     2  C    0.004494  -0.000102   0.000000   0.000001   0.000000   0.000109
     3  C   -0.000363   0.000009  -0.000005   0.000000  -0.000005   0.000009
     4  C    0.004495   0.000109  -0.000010  -0.000003  -0.000010  -0.000102
     5  C   -0.057516  -0.005165   0.001797   0.000270   0.001796   0.001516
     6  C    0.259112  -0.066002  -0.001265   0.003087  -0.001268  -0.066005
     7  H   -0.007413  -0.000009  -0.000002  -0.000001  -0.000002   0.003792
     8  H   -0.000015   0.000000   0.000000   0.000000   0.000000  -0.000003
     9  H   -0.000015  -0.000003   0.000000   0.000000   0.000000   0.000000
    10  H   -0.007415   0.003793   0.000658   0.000082   0.000661  -0.000009
    11  C   -0.000001   0.000000   0.000000   0.000000   0.000000   0.000000
    12  N    0.000000   0.000000   0.000000   0.000000   0.000000   0.000000
    13  N    7.222074   0.292705  -0.041597  -0.027771  -0.041583   0.292703
    14  C    0.292705   5.128821   0.355794   0.366111   0.355795  -0.057140
    15  H   -0.041597   0.355794   0.544361  -0.025735  -0.045829   0.002086
    16  H   -0.027771   0.366111  -0.025735   0.502309  -0.025720  -0.005346
    17  H   -0.041583   0.355795  -0.045829  -0.025720   0.544325   0.002087
    18  C    0.292703  -0.057140   0.002086  -0.005346   0.002087   5.128803
    19  H   -0.041588   0.002086  -0.000192   0.000114   0.000286   0.355794
    20  H   -0.027773  -0.005347   0.000114   0.005916   0.000113   0.366113
    21  H   -0.041597   0.002087   0.000286   0.000113  -0.000192   0.355798
             19         20         21
     1  C    0.001796   0.000269   0.001799
     2  C   -0.000010  -0.000003  -0.000010
     3  C   -0.000004   0.000000  -0.000005
     4  C    0.000000   0.000001   0.000000
     5  C    0.000123  -0.000053   0.000124
     6  C   -0.001265   0.003087  -0.001269
     7  H    0.000659   0.000082   0.000660
     8  H    0.000000   0.000000   0.000000
     9  H    0.000000   0.000000   0.000000
    10  H   -0.000002  -0.000001  -0.000002
    11  C    0.000000   0.000000   0.000000
    12  N    0.000000   0.000000   0.000000
    13  N   -0.041588  -0.027773  -0.041597
    14  C    0.002086  -0.005347   0.002087
    15  H   -0.000192   0.000114   0.000286
    16  H    0.000114   0.005916   0.000113
    17  H    0.000286   0.000113  -0.000192
    18  C    0.355794   0.366113   0.355798
    19  H    0.544361  -0.025737  -0.045829
    20  H   -0.025737   0.502316  -0.025720
    21  H   -0.045829  -0.025720   0.544332
 Mulliken atomic charges:
              1
     1  C   -0.202116
     2  C   -0.156278
     3  C   -0.010518
     4  C   -0.156264
     5  C   -0.202120
     6  C    0.388635
     7  H    0.190133
     8  H    0.200872
     9  H    0.200877
    10  H    0.190141
    11  C    0.274445
    12  N   -0.495209
    13  N   -0.723408
    14  C   -0.375058
    15  H    0.209416
    16  H    0.206625
    17  H    0.209421
    18  C   -0.375048
    19  H    0.209408
    20  H    0.206622
    21  H    0.209423
 Sum of Mulliken atomic charges =   0.00000
 Mulliken charges with hydrogens summed into heavy atoms:
              1
     1  C   -0.011983
     2  C    0.044594
     3  C   -0.010518
     4  C    0.044614
     5  C   -0.011979
     6  C    0.388635
    11  C    0.274445
    12  N   -0.495209
    13  N   -0.723408
    14  C    0.250404
    18  C    0.250405
 Sum of Mulliken charges with hydrogens summed into heavy atoms =   0.00000
 Electronic spatial extent (au):  <R**2>=           2178.2503
 Charge=              0.0000 electrons
 Dipole moment (field-independent basis, Debye):
    X=             -7.5352    Y=              0.0001    Z=              0.0000  Tot=              7.5352
 Quadrupole moment (field-independent basis, Debye-Ang):
   XX=            -78.5200   YY=            -56.4541   ZZ=            -68.7609
   XY=              0.0023   XZ=             -0.0017   YZ=              0.0000
 Traceless Quadrupole moment (field-independent basis, Debye-Ang):
   XX=            -10.6083   YY=             11.4576   ZZ=             -0.8492
   XY=              0.0023   XZ=             -0.0017   YZ=              0.0000
 Octapole moment (field-independent basis, Debye-Ang**2):
  XXX=           -188.6853  YYY=              0.0001  ZZZ=              0.0015  XYY=             -6.0692
  XXY=              0.0070  XXZ=             -0.0028  XZZ=             -3.8959  YZZ=             -0.0006
  YYZ=             -0.0008  XYZ=             -0.0001
 Hexadecapole moment (field-independent basis, Debye-Ang**3):
 XXXX=          -2913.6591 YYYY=           -446.5954 ZZZZ=            -80.8569 XXXY=              0.0487
 XXXZ=             -0.0366 YYYX=              0.0026 YYYZ=              0.0006 ZZZX=              0.0004
 ZZZY=             -0.0016 XXYY=           -435.0251 XXZZ=           -416.0781 YYZZ=            -96.9512
 XXYZ=             -0.0005 YYXZ=              0.0013 ZZXY=             -0.0009
 N-N= 5.452217814597D+02 E-N=-2.146945768292D+03  KE= 4.519900073996D+02
 1|1|UNPC-DESKTOP-K2VF0AK|FOpt|RB3LYP|3-21G|C9H10N2|MELIH|11-Jan-2025|0
 ||# opt b3lyp/3-21g geom=connectivity||Title Card Required||0,1|C,-2.2
 42522191,-0.3277150767,-0.5885598999|C,-0.8905951062,-0.5838117714,-0.
 4334651345|C,-0.0690603009,0.2802860886,0.3132340748|C,-0.6590663219,1
 .4147278091,0.8999791154|C,-2.0103003595,1.6763363268,0.7485863623|C,-
 2.8490199101,0.812677793,-0.0019594901|H,-2.8384017052,-1.0165692032,-
 1.1698445384|H,-0.4553703689,-1.4628739046,-0.893259215|H,-0.043358338
 1,2.092473645,1.4789025218|H,-2.4242381924,2.558508107,1.2153796483|C,
 1.3178653534,0.0147737751,0.4704584228|N,2.4576198931,-0.2031762832,0.
 5997898369|N,-4.192861644,1.070132054,-0.1543383727|C,-4.7940272212,2.
 2606051059,0.4654880068|H,-4.3388648936,3.185185842,0.086387968|H,-5.8
 583552985,2.2790204798,0.2265228461|H,-4.6855498652,2.2438999359,1.558
 0460289|C,-5.0378962114,0.1568161838,-0.9382370992|H,-5.0453243041,-0.
 8536296795,-0.5084932569|H,-6.0600336734,0.538229353,-0.9359824176|H,-
 4.6973582707,0.0876461195,-1.9798546279||Version=IA32W-G09RevA.02|Stat
 e=1-A|HF=-455.950354|RMSD=2.979e-009|RMSF=1.266e-005|Dipole=-2.8937967
 ,0.5541122,-0.328185|Quadrupole=-7.4612372,5.3889249,2.0723122,2.04857
 55,-0.2990916,4.3353337|PG=C01 [X(C9H10N2)]||@


 HE THAT IS UNAWARE OF HIS IGNORANCE WILL BE MISLED BY HIS KNOWLEDGE.

                                        -- WHATLEY
 Job cpu time:  0 days  0 hours  9 minutes 17.0 seconds.
 File lengths (MBytes):  RWF=     15 Int=      0 D2E=      0 Chk=      2 Scr=      1
 Normal termination of Gaussian 09 at Sat Jan 11 23:54:32 2025.
