 Entering Link 1 = C:\G09W\l1.exe PID=      7352.
  
 Copyright (c) 1988,1990,1992,1993,1995,1998,2003,2009, Gaussian, Inc.
                  All Rights Reserved.
  
 This is part of the Gaussian(R) 09 program.  It is based on
 the Gaussian(R) 03 system (copyright 2003, Gaussian, Inc.),
 the Gaussian(R) 98 system (copyright 1998, Gaussian, Inc.),
 the Gaussian(R) 94 system (copyright 1995, Gaussian, Inc.),
 the Gaussian 92(TM) system (copyright 1992, Gaussian, Inc.),
 the Gaussian 90(TM) system (copyright 1990, Gaussian, Inc.),
 the Gaussian 88(TM) system (copyright 1988, Gaussian, Inc.),
 the Gaussian 86(TM) system (copyright 1986, Carnegie Mellon
 University), and the Gaussian 82(TM) system (copyright 1983,
 Carnegie Mellon University). Gaussian is a federally registered
 trademark of Gaussian, Inc.
  
 This software contains proprietary and confidential information,
 including trade secrets, belonging to Gaussian, Inc.
  
 This software is provided under written license and may be
 used, copied, transmitted, or stored only in accord with that
 written license.
  
 The following legend is applicable only to US Government
 contracts under FAR:
  
                    RESTRICTED RIGHTS LEGEND
  
 Use, reproduction and disclosure by the US Government is
 subject to restrictions as set forth in subparagraphs (a)
 and (c) of the Commercial Computer Software - Restricted
 Rights clause in FAR 52.227-19.
  
 Gaussian, Inc.
 340 Quinnipiac St., Bldg. 40, Wallingford CT 06492
  
  
 ---------------------------------------------------------------
 Warning -- This program may not be used in any manner that
 competes with the business of Gaussian, Inc. or will provide
 assistance to any competitor of Gaussian, Inc.  The licensee
 of this program is prohibited from giving any competitor of
 Gaussian, Inc. access to this program.  By using this program,
 the user acknowledges that Gaussian, Inc. is engaged in the
 business of creating and licensing software in the field of
 computational chemistry and represents and warrants to the
 licensee that it is not a competitor of Gaussian, Inc. and that
 it will not use this program in any manner prohibited above.
 ---------------------------------------------------------------
  

 Cite this work as:
 Gaussian 09, Revision A.02,
 M. J. Frisch, G. W. Trucks, H. B. Schlegel, G. E. Scuseria, 
 M. A. Robb, J. R. Cheeseman, G. Scalmani, V. Barone, B. Mennucci, 
 G. A. Petersson, H. Nakatsuji, M. Caricato, X. Li, H. P. Hratchian, 
 A. F. Izmaylov, J. Bloino, G. Zheng, J. L. Sonnenberg, M. Hada, 
 M. Ehara, K. Toyota, R. Fukuda, J. Hasegawa, M. Ishida, T. Nakajima, 
 Y. Honda, O. Kitao, H. Nakai, T. Vreven, J. A. Montgomery, Jr., 
 J. E. Peralta, F. Ogliaro, M. Bearpark, J. J. Heyd, E. Brothers, 
 K. N. Kudin, V. N. Staroverov, R. Kobayashi, J. Normand, 
 K. Raghavachari, A. Rendell, J. C. Burant, S. S. Iyengar, J. Tomasi, 
 M. Cossi, N. Rega, J. M. Millam, M. Klene, J. E. Knox, J. B. Cross, 
 V. Bakken, C. Adamo, J. Jaramillo, R. Gomperts, R. E. Stratmann, 
 O. Yazyev, A. J. Austin, R. Cammi, C. Pomelli, J. W. Ochterski, 
 R. L. Martin, K. Morokuma, V. G. Zakrzewski, G. A. Voth, 
 P. Salvador, J. J. Dannenberg, S. Dapprich, A. D. Daniels, 
 O. Farkas, J. B. Foresman, J. V. Ortiz, J. Cioslowski, 
 and D. J. Fox, Gaussian, Inc., Wallingford CT, 2009.
 
 ******************************************
 Gaussian 09:  IA32W-G09RevA.02 11-Jun-2009
                16-Jan-2025 
 ******************************************
 %chk=C:\G09W\Final\optfreq.chk
 ----------------------------------------
 # opt freq b3lyp/6-31g geom=connectivity
 ----------------------------------------
 1/14=-1,18=20,19=15,26=3,38=1,57=2/1,3;
 2/9=110,12=2,17=6,18=5,40=1/2;
 3/5=1,6=6,11=2,16=1,25=1,30=1,71=1,74=-5/1,2,3;
 4//1;
 5/5=2,38=5/2;
 6/7=2,8=2,9=2,10=2,28=1/1;
 7//1,2,3,16;
 1/14=-1,18=20,19=15/3(2);
 2/9=110/2;
 99//99;
 2/9=110/2;
 3/5=1,6=6,11=2,16=1,25=1,30=1,71=1,74=-5/1,2,3;
 4/5=5,16=3/1;
 5/5=2,38=5/2;
 7//1,2,3,16;
 1/14=-1,18=20,19=15/3(-5);
 2/9=110/2;
 6/7=2,8=2,9=2,10=2,19=2,28=1/1;
 99/9=1/99;
 -------------------
 Title Card Required
 -------------------
 Symbolic Z-matrix:
 Charge =  0 Multiplicity = 1
 C                    -2.35124  -0.74827   0.08065 
 C                    -0.95695  -0.86462   0.16026 
 C                    -0.16477   0.28313   0.29826 
 C                    -0.76689   1.54724   0.35666 
 C                    -2.16118   1.66359   0.27705 
 C                    -2.95336   0.51583   0.13905 
 H                    -2.95608  -1.62461  -0.02472 
 H                    -0.49722  -1.8298    0.11567 
 H                    -0.16205   2.42357   0.46202 
 H                    -2.62092   2.62876   0.32164 
 C                     1.36741   0.15527   0.38573 
 N                     2.5082    0.06008   0.45086 
 N                    -4.4159    0.63788   0.05555 
 C                    -4.8532    1.81848   0.8144 
 H                    -4.39808   2.69532   0.40342 
 H                    -5.91778   1.90732   0.75362 
 H                    -4.56206   1.71214   1.83852 
 C                    -4.81588   0.78397  -1.35143 
 H                    -4.49757  -0.07537  -1.90379 
 H                    -5.88045   0.87281  -1.41221 
 H                    -4.36076   1.66082  -1.76241 
 

 GradGradGradGradGradGradGradGradGradGradGradGradGradGradGradGradGradGrad
 Berny optimization.
 Initialization pass.
                           ----------------------------
                           !    Initial Parameters    !
                           ! (Angstroms and Degrees)  !
 --------------------------                            --------------------------
 ! Name  Definition              Value          Derivative Info.                !
 --------------------------------------------------------------------------------
 ! R1    R(1,2)                  1.4014         estimate D2E/DX2                !
 ! R2    R(1,6)                  1.4014         estimate D2E/DX2                !
 ! R3    R(1,7)                  1.07           estimate D2E/DX2                !
 ! R4    R(2,3)                  1.4014         estimate D2E/DX2                !
 ! R5    R(2,8)                  1.07           estimate D2E/DX2                !
 ! R6    R(3,4)                  1.4014         estimate D2E/DX2                !
 ! R7    R(3,11)                 1.54           estimate D2E/DX2                !
 ! R8    R(4,5)                  1.4014         estimate D2E/DX2                !
 ! R9    R(4,9)                  1.07           estimate D2E/DX2                !
 ! R10   R(5,6)                  1.4014         estimate D2E/DX2                !
 ! R11   R(5,10)                 1.07           estimate D2E/DX2                !
 ! R12   R(6,13)                 1.47           estimate D2E/DX2                !
 ! R13   R(11,12)                1.1466         estimate D2E/DX2                !
 ! R14   R(13,14)                1.47           estimate D2E/DX2                !
 ! R15   R(13,18)                1.47           estimate D2E/DX2                !
 ! R16   R(14,15)                1.07           estimate D2E/DX2                !
 ! R17   R(14,16)                1.07           estimate D2E/DX2                !
 ! R18   R(14,17)                1.07           estimate D2E/DX2                !
 ! R19   R(18,19)                1.07           estimate D2E/DX2                !
 ! R20   R(18,20)                1.07           estimate D2E/DX2                !
 ! R21   R(18,21)                1.07           estimate D2E/DX2                !
 ! A1    A(2,1,6)              120.0            estimate D2E/DX2                !
 ! A2    A(2,1,7)              120.0            estimate D2E/DX2                !
 ! A3    A(6,1,7)              120.0            estimate D2E/DX2                !
 ! A4    A(1,2,3)              120.0            estimate D2E/DX2                !
 ! A5    A(1,2,8)              120.0            estimate D2E/DX2                !
 ! A6    A(3,2,8)              120.0            estimate D2E/DX2                !
 ! A7    A(2,3,4)              120.0            estimate D2E/DX2                !
 ! A8    A(2,3,11)             120.0            estimate D2E/DX2                !
 ! A9    A(4,3,11)             120.0            estimate D2E/DX2                !
 ! A10   A(3,4,5)              120.0            estimate D2E/DX2                !
 ! A11   A(3,4,9)              120.0            estimate D2E/DX2                !
 ! A12   A(5,4,9)              120.0            estimate D2E/DX2                !
 ! A13   A(4,5,6)              120.0            estimate D2E/DX2                !
 ! A14   A(4,5,10)             120.0            estimate D2E/DX2                !
 ! A15   A(6,5,10)             120.0            estimate D2E/DX2                !
 ! A16   A(1,6,5)              120.0            estimate D2E/DX2                !
 ! A17   A(1,6,13)             120.0            estimate D2E/DX2                !
 ! A18   A(5,6,13)             120.0            estimate D2E/DX2                !
 ! A19   A(6,13,14)            109.4712         estimate D2E/DX2                !
 ! A20   A(6,13,18)            109.4712         estimate D2E/DX2                !
 ! A21   A(14,13,18)           109.4712         estimate D2E/DX2                !
 ! A22   A(13,14,15)           109.4712         estimate D2E/DX2                !
 ! A23   A(13,14,16)           109.4712         estimate D2E/DX2                !
 ! A24   A(13,14,17)           109.4712         estimate D2E/DX2                !
 ! A25   A(15,14,16)           109.4712         estimate D2E/DX2                !
 ! A26   A(15,14,17)           109.4712         estimate D2E/DX2                !
 ! A27   A(16,14,17)           109.4712         estimate D2E/DX2                !
 ! A28   A(13,18,19)           109.4712         estimate D2E/DX2                !
 ! A29   A(13,18,20)           109.4712         estimate D2E/DX2                !
 ! A30   A(13,18,21)           109.4712         estimate D2E/DX2                !
 ! A31   A(19,18,20)           109.4712         estimate D2E/DX2                !
 ! A32   A(19,18,21)           109.4712         estimate D2E/DX2                !
 ! A33   A(20,18,21)           109.4712         estimate D2E/DX2                !
 ! A34   L(3,11,12,4,-1)       179.9999         estimate D2E/DX2                !
 ! A35   L(3,11,12,4,-2)       180.0            estimate D2E/DX2                !
 ! D1    D(6,1,2,3)             -0.0001         estimate D2E/DX2                !
 ! D2    D(6,1,2,8)            179.9999         estimate D2E/DX2                !
 ! D3    D(7,1,2,3)            179.9999         estimate D2E/DX2                !
 ! D4    D(7,1,2,8)             -0.0001         estimate D2E/DX2                !
 ! D5    D(2,1,6,5)              0.0            estimate D2E/DX2                !
 ! D6    D(2,1,6,13)          -180.0            estimate D2E/DX2                !
 ! D7    D(7,1,6,5)           -179.9999         estimate D2E/DX2                !
 ! D8    D(7,1,6,13)             0.0001         estimate D2E/DX2                !
 ! D9    D(1,2,3,4)              0.0001         estimate D2E/DX2                !
 ! D10   D(1,2,3,11)          -179.9998         estimate D2E/DX2                !
 ! D11   D(8,2,3,4)           -179.9999         estimate D2E/DX2                !
 ! D12   D(8,2,3,11)             0.0002         estimate D2E/DX2                !
 ! D13   D(2,3,4,5)             -0.0001         estimate D2E/DX2                !
 ! D14   D(2,3,4,9)            179.9999         estimate D2E/DX2                !
 ! D15   D(11,3,4,5)           179.9998         estimate D2E/DX2                !
 ! D16   D(11,3,4,9)            -0.0001         estimate D2E/DX2                !
 ! D17   D(3,4,5,6)              0.0001         estimate D2E/DX2                !
 ! D18   D(3,4,5,10)           179.9999         estimate D2E/DX2                !
 ! D19   D(9,4,5,6)           -180.0            estimate D2E/DX2                !
 ! D20   D(9,4,5,10)            -0.0001         estimate D2E/DX2                !
 ! D21   D(4,5,6,1)              0.0            estimate D2E/DX2                !
 ! D22   D(4,5,6,13)           180.0            estimate D2E/DX2                !
 ! D23   D(10,5,6,1)          -179.9998         estimate D2E/DX2                !
 ! D24   D(10,5,6,13)            0.0002         estimate D2E/DX2                !
 ! D25   D(1,6,13,14)          150.0            estimate D2E/DX2                !
 ! D26   D(1,6,13,18)          -90.0            estimate D2E/DX2                !
 ! D27   D(5,6,13,14)          -30.0            estimate D2E/DX2                !
 ! D28   D(5,6,13,18)           90.0            estimate D2E/DX2                !
 ! D29   D(6,13,14,15)          60.0            estimate D2E/DX2                !
 ! D30   D(6,13,14,16)         180.0            estimate D2E/DX2                !
 ! D31   D(6,13,14,17)         -60.0            estimate D2E/DX2                !
 ! D32   D(18,13,14,15)        -60.0            estimate D2E/DX2                !
 ! D33   D(18,13,14,16)         60.0            estimate D2E/DX2                !
 ! D34   D(18,13,14,17)        180.0            estimate D2E/DX2                !
 ! D35   D(6,13,18,19)          60.0            estimate D2E/DX2                !
 ! D36   D(6,13,18,20)         180.0            estimate D2E/DX2                !
 ! D37   D(6,13,18,21)         -60.0            estimate D2E/DX2                !
 ! D38   D(14,13,18,19)        180.0            estimate D2E/DX2                !
 ! D39   D(14,13,18,20)        -60.0            estimate D2E/DX2                !
 ! D40   D(14,13,18,21)         60.0            estimate D2E/DX2                !
 --------------------------------------------------------------------------------
 Trust Radius=3.00D-01 FncErr=1.00D-07 GrdErr=1.00D-06
 Number of steps in this run= 106 maximum allowed number of steps= 126.
 GradGradGradGradGradGradGradGradGradGradGradGradGradGradGradGradGradGrad

                          Input orientation:                          
 ---------------------------------------------------------------------
 Center     Atomic      Atomic             Coordinates (Angstroms)
 Number     Number       Type             X           Y           Z
 ---------------------------------------------------------------------
      1          6           0       -2.351237   -0.748272    0.080649
      2          6           0       -0.956946   -0.864623    0.160255
      3          6           0       -0.164774    0.283132    0.298257
      4          6           0       -0.766893    1.547238    0.356655
      5          6           0       -2.161184    1.663589    0.277050
      6          6           0       -2.953356    0.515835    0.139047
      7          1           0       -2.956078   -1.624608   -0.024720
      8          1           0       -0.497215   -1.829796    0.115668
      9          1           0       -0.162052    2.423574    0.462024
     10          1           0       -2.620916    2.628762    0.321640
     11          6           0        1.367414    0.155273    0.385732
     12          7           0        2.508198    0.060078    0.450861
     13          7           0       -4.415899    0.637882    0.055545
     14          6           0       -4.853204    1.818478    0.814398
     15          1           0       -4.398083    2.695324    0.403416
     16          1           0       -5.917776    1.907315    0.753618
     17          1           0       -4.562063    1.712141    1.838522
     18          6           0       -4.815878    0.783971   -1.351428
     19          1           0       -4.497567   -0.075374   -1.903790
     20          1           0       -5.880450    0.872808   -1.412208
     21          1           0       -4.360757    1.660817   -1.762410
 ---------------------------------------------------------------------
                    Distance matrix (angstroms):
                    1          2          3          4          5
     1  C    0.000000
     2  C    1.401400   0.000000
     3  C    2.427296   1.401400   0.000000
     4  C    2.802800   2.427296   1.401400   0.000000
     5  C    2.427296   2.802800   2.427296   1.401400   0.000000
     6  C    1.401400   2.427296   2.802800   2.427296   1.401400
     7  H    1.070000   2.146700   3.396345   3.872800   3.396345
     8  H    2.146700   1.070000   2.146700   3.396345   3.872800
     9  H    3.872800   3.396345   2.146700   1.070000   2.146700
    10  H    3.396345   3.872800   3.396345   2.146700   1.070000
    11  C    3.838989   2.548270   1.540000   2.548270   3.838989
    12  N    4.940100   3.598159   2.686600   3.598158   4.940100
    13  N    2.486942   3.772644   4.272800   3.772644   2.486942
    14  C    3.658747   4.775747   4.960349   4.120805   2.749492
    15  H    4.018968   4.957194   4.873462   3.808652   2.466609
    16  H    4.497246   5.713629   5.995194   5.178690   3.794536
    17  H    3.745864   4.738476   4.873462   4.077553   2.864397
    18  C    3.236212   4.460314   4.960349   4.460314   3.236212
    19  H    2.999587   4.173631   4.873462   4.654075   3.638508
    20  H    4.160753   5.452724   5.995194   5.452724   4.160753
    21  H    3.638508   4.654075   4.873462   4.173631   2.999587
                    6          7          8          9         10
     6  C    0.000000
     7  H    2.146700   0.000000
     8  H    3.396345   2.471400   0.000000
     9  H    3.396345   4.942800   4.280590   0.000000
    10  H    2.146700   4.280590   4.942800   2.471400   0.000000
    11  C    4.342800   4.693509   2.736837   2.736837   4.693509
    12  N    5.489400   5.737826   3.566018   3.566016   5.737825
    13  N    1.470000   2.693766   4.631321   4.631321   2.693767
    14  C    2.400500   4.019707   5.724750   4.743123   2.425383
    15  H    2.628174   4.574329   5.981328   4.245143   1.780293
    16  H    3.331921   4.674606   6.614791   5.786182   3.402408
    17  H    2.628174   4.145449   5.660082   4.664866   2.628531
    18  C    2.400500   3.319678   5.256900   5.256900   3.319679
    19  H    2.628174   2.882224   4.812382   5.535206   3.973250
    20  H    3.331921   4.088295   6.214313   6.214313   4.088297
    21  H    2.628174   3.973248   5.535207   4.812382   2.882227
                   11         12         13         14         15
    11  C    0.000000
    12  N    1.146600   0.000000
    13  N    5.812800   6.959400   0.000000
    14  C    6.453378   7.577227   1.470000   0.000000
    15  H    6.300248   7.392123   2.086720   1.070000   0.000000
    16  H    7.501932   8.631395   2.086720   1.070000   1.747303
    17  H    6.300249   7.392124   2.086720   1.070000   1.747303
    18  C    6.453377   7.577226   1.470000   2.400500   2.628174
    19  H    6.300247   7.392122   2.086720   3.331921   3.606919
    20  H    7.501931   8.631394   2.086720   2.628174   2.969085
    21  H    6.300247   7.392122   2.086720   2.628174   2.400500
                   16         17         18         19         20
    16  H    0.000000
    17  H    1.747303   0.000000
    18  C    2.628174   3.331921   0.000000
    19  H    3.606919   4.147803   1.070000   0.000000
    20  H    2.400500   3.606919   1.070000   1.747303   0.000000
    21  H    2.969085   3.606919   1.070000   1.747303   1.747303
                   21
    21  H    0.000000
 Stoichiometry    C9H10N2
 Framework group  C1[X(C9H10N2)]
 Deg. of freedom    57
 Full point group                 C1      NOp   1
 Largest Abelian subgroup         C1      NOp   1
 Largest concise Abelian subgroup C1      NOp   1
                         Standard orientation:                         
 ---------------------------------------------------------------------
 Center     Atomic      Atomic             Coordinates (Angstroms)
 Number     Number       Type             X           Y           Z
 ---------------------------------------------------------------------
      1          6           0       -0.131413    1.316058   -0.424302
      2          6           0        1.263703    1.215701   -0.337699
      3          6           0        1.858836   -0.008676   -0.005071
      4          6           0        1.058852   -1.132696    0.240951
      5          6           0       -0.336264   -1.032339    0.154347
      6          6           0       -0.931397    0.192038   -0.178280
      7          1           0       -0.585811    2.250897   -0.678269
      8          1           0        1.874509    2.073915   -0.525543
      9          1           0        1.513249   -2.067535    0.494918
     10          1           0       -0.947070   -1.890554    0.342188
     11          6           0        3.391931   -0.118957    0.090101
     12          7           0        4.533390   -0.201068    0.160962
     13          7           0       -2.394806    0.297307   -0.269123
     14          6           0       -2.954302   -0.996910   -0.684896
     15          1           0       -2.694513   -1.745367    0.034285
     16          1           0       -4.019504   -0.920285   -0.751020
     17          1           0       -2.556140   -1.267126   -1.640589
     18          6           0       -2.941813    0.668539    1.043839
     19          1           0       -2.534561    1.610588    1.346476
     20          1           0       -4.007016    0.745163    0.977715
     21          1           0       -2.682024   -0.079919    1.763020
 ---------------------------------------------------------------------
 Rotational constants (GHZ):      3.4202353      0.5605821      0.5164084
 Standard basis: 6-31G (6D, 7F)
 There are   119 symmetry adapted basis functions of A   symmetry.
 Integral buffers will be    262144 words long.
 Raffenetti 2 integral format.
 Two-electron integral symmetry is turned on.
   119 basis functions,   282 primitive gaussians,   119 cartesian basis functions
    39 alpha electrons       39 beta electrons
       nuclear repulsion energy       545.8402255028 Hartrees.
 NAtoms=   21 NActive=   21 NUniq=   21 SFac= 7.50D-01 NAtFMM=   80 NAOKFM=F Big=F
 One-electron integrals computed using PRISM.
 NBasis=   119 RedAO= T  NBF=   119
 NBsUse=   119 1.00D-06 NBFU=   119
 Harris functional with IExCor=  402 diagonalized for initial guess.
 ExpMin= 1.61D-01 ExpMax= 4.17D+03 ExpMxC= 6.27D+02 IAcc=1 IRadAn=         1 AccDes= 0.00D+00
 HarFok:  IExCor=  402 AccDes= 0.00D+00 IRadAn=         1 IDoV= 1
 ScaDFX=  1.000000  1.000000  1.000000  1.000000
 FoFCou: FMM=F IPFlag=           0 FMFlag=      100000 FMFlg1=           0
         NFxFlg=           0 DoJE=T BraDBF=F KetDBF=T FulRan=T
         Omega=  0.000000  0.000000  1.000000  0.000000  0.000000 ICntrl=     500 IOpCl=  0
         NMat0=    1 NMatS0=    1 NMatT0=    0 NMatD0=    1 NMtDS0=    0 NMtDT0=    0
         I1Cent=           4 NGrid=           0.
 Petite list used in FoFCou.
 Initial guess orbital symmetries:
       Occupied  (A) (A) (A) (A) (A) (A) (A) (A) (A) (A) (A) (A)
                 (A) (A) (A) (A) (A) (A) (A) (A) (A) (A) (A) (A)
                 (A) (A) (A) (A) (A) (A) (A) (A) (A) (A) (A) (A)
                 (A) (A) (A)
       Virtual   (A) (A) (A) (A) (A) (A) (A) (A) (A) (A) (A) (A)
                 (A) (A) (A) (A) (A) (A) (A) (A) (A) (A) (A) (A)
                 (A) (A) (A) (A) (A) (A) (A) (A) (A) (A) (A) (A)
                 (A) (A) (A) (A) (A) (A) (A) (A) (A) (A) (A) (A)
                 (A) (A) (A) (A) (A) (A) (A) (A) (A) (A) (A) (A)
                 (A) (A) (A) (A) (A) (A) (A) (A) (A) (A) (A) (A)
                 (A) (A) (A) (A) (A) (A) (A) (A)
 The electronic state of the initial guess is 1-A.
 Requested convergence on RMS density matrix=1.00D-08 within 128 cycles.
 Requested convergence on MAX density matrix=1.00D-06.
 Requested convergence on             energy=1.00D-06.
 No special actions if energy rises.
 Keep R1 ints in memory in canonical form, NReq=26663856.
 Integral accuracy reduced to 1.0D-05 until final iterations.
 Initial convergence to 1.0D-05 achieved.  Increase integral accuracy.
 SCF Done:  E(RB3LYP) =  -458.310047515     A.U. after   16 cycles
             Convg  =    0.3156D-08             -V/T =  2.0051

 **********************************************************************

            Population analysis using the SCF density.

 **********************************************************************

 Orbital symmetries:
       Occupied  (A) (A) (A) (A) (A) (A) (A) (A) (A) (A) (A) (A)
                 (A) (A) (A) (A) (A) (A) (A) (A) (A) (A) (A) (A)
                 (A) (A) (A) (A) (A) (A) (A) (A) (A) (A) (A) (A)
                 (A) (A) (A)
       Virtual   (A) (A) (A) (A) (A) (A) (A) (A) (A) (A) (A) (A)
                 (A) (A) (A) (A) (A) (A) (A) (A) (A) (A) (A) (A)
                 (A) (A) (A) (A) (A) (A) (A) (A) (A) (A) (A) (A)
                 (A) (A) (A) (A) (A) (A) (A) (A) (A) (A) (A) (A)
                 (A) (A) (A) (A) (A) (A) (A) (A) (A) (A) (A) (A)
                 (A) (A) (A) (A) (A) (A) (A) (A) (A) (A) (A) (A)
                 (A) (A) (A) (A) (A) (A) (A) (A)
 The electronic state is 1-A.
 Alpha  occ. eigenvalues --  -14.34731 -14.34308 -10.24711 -10.24047 -10.23221
 Alpha  occ. eigenvalues --  -10.21623 -10.21506 -10.20635 -10.20614 -10.20567
 Alpha  occ. eigenvalues --  -10.20399  -0.95375  -0.93518  -0.87622  -0.77613
 Alpha  occ. eigenvalues --   -0.77515  -0.72993  -0.67431  -0.63859  -0.60856
 Alpha  occ. eigenvalues --   -0.56621  -0.51051  -0.49816  -0.48019  -0.46896
 Alpha  occ. eigenvalues --   -0.45539  -0.44624  -0.43114  -0.41095  -0.39872
 Alpha  occ. eigenvalues --   -0.38695  -0.38140  -0.37410  -0.35073  -0.34929
 Alpha  occ. eigenvalues --   -0.34342  -0.27551  -0.27452  -0.22604
 Alpha virt. eigenvalues --   -0.03954  -0.02410   0.04123   0.07442   0.07476
 Alpha virt. eigenvalues --    0.09313   0.11580   0.13412   0.13782   0.14989
 Alpha virt. eigenvalues --    0.15428   0.15727   0.16119   0.17675   0.18963
 Alpha virt. eigenvalues --    0.19426   0.22301   0.23552   0.25229   0.29784
 Alpha virt. eigenvalues --    0.30570   0.32414   0.34328   0.39712   0.46898
 Alpha virt. eigenvalues --    0.49490   0.50232   0.52806   0.53178   0.53876
 Alpha virt. eigenvalues --    0.55949   0.56345   0.57507   0.58708   0.59391
 Alpha virt. eigenvalues --    0.59898   0.62307   0.63455   0.64013   0.64857
 Alpha virt. eigenvalues --    0.67461   0.68109   0.69565   0.70746   0.72555
 Alpha virt. eigenvalues --    0.76596   0.78908   0.80355   0.83107   0.83537
 Alpha virt. eigenvalues --    0.84926   0.85721   0.88438   0.89730   0.90678
 Alpha virt. eigenvalues --    0.91340   0.93816   0.94363   0.95736   0.96906
 Alpha virt. eigenvalues --    0.98809   1.00652   1.01291   1.02965   1.06519
 Alpha virt. eigenvalues --    1.09557   1.13326   1.14664   1.16246   1.18739
 Alpha virt. eigenvalues --    1.23951   1.25577   1.32402   1.42300   1.46490
 Alpha virt. eigenvalues --    1.47555   1.58954   1.71596   1.81607   1.95299
          Condensed to atoms (all electrons):
              1          2          3          4          5          6
     1  C    4.980837   0.496680  -0.049687  -0.035058  -0.092039   0.538837
     2  C    0.496680   4.935115   0.516629  -0.055961  -0.037409  -0.041860
     3  C   -0.049687   0.516629   4.924759   0.524295  -0.049432  -0.022804
     4  C   -0.035058  -0.055961   0.524295   4.945242   0.453593  -0.026194
     5  C   -0.092039  -0.037409  -0.049432   0.453593   5.145795   0.443586
     6  C    0.538837  -0.041860  -0.022804  -0.026194   0.443586   4.874344
     7  H    0.345865  -0.033600   0.004250   0.000251   0.006640  -0.029109
     8  H   -0.026844   0.354974  -0.037236   0.004161   0.000655   0.003974
     9  H    0.000678   0.004142  -0.035493   0.353580  -0.026419   0.002788
    10  H    0.003306   0.000860   0.003952  -0.027181   0.362562  -0.050592
    11  C    0.004743  -0.023106   0.180109  -0.022175   0.005589   0.000849
    12  N   -0.000012   0.000388  -0.037263   0.000346  -0.000014   0.000007
    13  N   -0.055246   0.004280   0.000180   0.006893  -0.090690   0.270975
    14  C    0.004268  -0.000167  -0.000053   0.001107  -0.004948  -0.062990
    15  H   -0.000825   0.000046  -0.000015  -0.000291   0.002117  -0.015885
    16  H   -0.000090   0.000001   0.000001  -0.000016   0.000288   0.006940
    17  H    0.000593  -0.000037  -0.000007  -0.000039  -0.000388  -0.000852
    18  C   -0.007996  -0.000121   0.000015   0.000036  -0.000984  -0.066589
    19  H    0.004254  -0.000176  -0.000006   0.000044  -0.000930  -0.002893
    20  H    0.000248  -0.000001   0.000000   0.000007  -0.000324   0.006663
    21  H   -0.000737   0.000088  -0.000026  -0.000587   0.009065  -0.004659
              7          8          9         10         11         12
     1  C    0.345865  -0.026844   0.000678   0.003306   0.004743  -0.000012
     2  C   -0.033600   0.354974   0.004142   0.000860  -0.023106   0.000388
     3  C    0.004250  -0.037236  -0.035493   0.003952   0.180109  -0.037263
     4  C    0.000251   0.004161   0.353580  -0.027181  -0.022175   0.000346
     5  C    0.006640   0.000655  -0.026419   0.362562   0.005589  -0.000014
     6  C   -0.029109   0.003974   0.002788  -0.050592   0.000849   0.000007
     7  H    0.563486  -0.004156   0.000014  -0.000154  -0.000164   0.000000
     8  H   -0.004156   0.553557  -0.000175   0.000012  -0.005177   0.000215
     9  H    0.000014  -0.000175   0.553937  -0.003558  -0.004945   0.000227
    10  H   -0.000154   0.000012  -0.003558   0.575497  -0.000185   0.000000
    11  C   -0.000164  -0.005177  -0.004945  -0.000185   4.964251   0.901379
    12  N    0.000000   0.000215   0.000227   0.000000   0.901379   6.369680
    13  N    0.000379  -0.000103  -0.000119  -0.012456  -0.000001   0.000000
    14  C    0.000082   0.000003   0.000020  -0.000851   0.000000   0.000000
    15  H    0.000048   0.000000   0.000045   0.008028   0.000000   0.000000
    16  H   -0.000014   0.000000   0.000000  -0.000052   0.000000   0.000000
    17  H   -0.000041   0.000000  -0.000006  -0.000324   0.000000   0.000000
    18  C    0.000279   0.000002   0.000000  -0.000121   0.000000   0.000000
    19  H    0.000205   0.000004   0.000000  -0.000038   0.000000   0.000000
    20  H   -0.000088   0.000000   0.000000  -0.000055   0.000000   0.000000
    21  H    0.000225   0.000000   0.000011   0.001461   0.000000   0.000000
             13         14         15         16         17         18
     1  C   -0.055246   0.004268  -0.000825  -0.000090   0.000593  -0.007996
     2  C    0.004280  -0.000167   0.000046   0.000001  -0.000037  -0.000121
     3  C    0.000180  -0.000053  -0.000015   0.000001  -0.000007   0.000015
     4  C    0.006893   0.001107  -0.000291  -0.000016  -0.000039   0.000036
     5  C   -0.090690  -0.004948   0.002117   0.000288  -0.000388  -0.000984
     6  C    0.270975  -0.062990  -0.015885   0.006940  -0.000852  -0.066589
     7  H    0.000379   0.000082   0.000048  -0.000014  -0.000041   0.000279
     8  H   -0.000103   0.000003   0.000000   0.000000   0.000000   0.000002
     9  H   -0.000119   0.000020   0.000045   0.000000  -0.000006   0.000000
    10  H   -0.012456  -0.000851   0.008028  -0.000052  -0.000324  -0.000121
    11  C   -0.000001   0.000000   0.000000   0.000000   0.000000   0.000000
    12  N    0.000000   0.000000   0.000000   0.000000   0.000000   0.000000
    13  N    7.079544   0.275761  -0.067185  -0.037575  -0.037949   0.285002
    14  C    0.275761   5.012310   0.354522   0.377416   0.383733  -0.071238
    15  H   -0.067185   0.354522   0.673908  -0.041551  -0.045962  -0.005226
    16  H   -0.037575   0.377416  -0.041551   0.569129  -0.023489  -0.003476
    17  H   -0.037949   0.383733  -0.045962  -0.023489   0.554245   0.006258
    18  C    0.285002  -0.071238  -0.005226  -0.003476   0.006258   5.019026
    19  H   -0.038620   0.006498  -0.000496   0.000140  -0.000258   0.379570
    20  H   -0.037667  -0.002859  -0.002060   0.004589   0.000132   0.375324
    21  H   -0.072692  -0.006702   0.017958  -0.001924  -0.000486   0.358736
             19         20         21
     1  C    0.004254   0.000248  -0.000737
     2  C   -0.000176  -0.000001   0.000088
     3  C   -0.000006   0.000000  -0.000026
     4  C    0.000044   0.000007  -0.000587
     5  C   -0.000930  -0.000324   0.009065
     6  C   -0.002893   0.006663  -0.004659
     7  H    0.000205  -0.000088   0.000225
     8  H    0.000004   0.000000   0.000000
     9  H    0.000000   0.000000   0.000011
    10  H   -0.000038  -0.000055   0.001461
    11  C    0.000000   0.000000   0.000000
    12  N    0.000000   0.000000   0.000000
    13  N   -0.038620  -0.037667  -0.072692
    14  C    0.006498  -0.002859  -0.006702
    15  H   -0.000496  -0.002060   0.017958
    16  H    0.000140   0.004589  -0.001924
    17  H   -0.000258   0.000132  -0.000486
    18  C    0.379570   0.375324   0.358736
    19  H    0.559643  -0.023578  -0.041199
    20  H   -0.023578   0.570088  -0.043978
    21  H   -0.041199  -0.043978   0.660285
 Mulliken atomic charges:
              1
     1  C   -0.111774
     2  C   -0.120765
     3  C    0.077834
     4  C   -0.122052
     5  C   -0.126311
     6  C    0.175464
     7  H    0.145604
     8  H    0.156135
     9  H    0.155271
    10  H    0.139888
    11  C   -0.001167
    12  N   -0.234953
    13  N   -0.472711
    14  C   -0.265910
    15  H    0.122824
    16  H    0.149683
    17  H    0.164876
    18  C   -0.268498
    19  H    0.157837
    20  H    0.153561
    21  H    0.125163
 Sum of Mulliken atomic charges =   0.00000
 Mulliken charges with hydrogens summed into heavy atoms:
              1
     1  C    0.033830
     2  C    0.035370
     3  C    0.077834
     4  C    0.033219
     5  C    0.013577
     6  C    0.175464
    11  C   -0.001167
    12  N   -0.234953
    13  N   -0.472711
    14  C    0.171473
    18  C    0.168063
 Sum of Mulliken charges with hydrogens summed into heavy atoms =   0.00000
 Electronic spatial extent (au):  <R**2>=           2152.3693
 Charge=              0.0000 electrons
 Dipole moment (field-independent basis, Debye):
    X=             -5.0699    Y=             -0.3901    Z=              0.5323  Tot=              5.1126
 Quadrupole moment (field-independent basis, Debye-Ang):
   XX=            -85.4905   YY=            -58.8602   ZZ=            -66.2908
   XY=              3.9994   XZ=             -3.3601   YZ=              0.0425
 Traceless Quadrupole moment (field-independent basis, Debye-Ang):
   XX=            -15.2767   YY=             11.3536   ZZ=              3.9230
   XY=              3.9994   XZ=             -3.3601   YZ=              0.0425
 Octapole moment (field-independent basis, Debye-Ang**2):
  XXX=           -166.2768  YYY=              2.7519  ZZZ=             -0.2323  XYY=              1.0941
  XXY=              2.0726  XXZ=              0.0884  XZZ=             -4.1293  YZZ=             -0.6380
  YYZ=              0.1046  XYZ=             -6.4716
 Hexadecapole moment (field-independent basis, Debye-Ang**3):
 XXXX=          -3009.9933 YYYY=           -362.9791 ZZZZ=           -176.0955 XXXY=             54.6143
 XXXZ=            -44.9491 YYYX=             -0.6702 YYYZ=             -8.9240 ZZZX=              1.8990
 ZZZY=              4.4454 XXYY=           -445.3017 XXZZ=           -421.8299 YYZZ=            -94.2713
 XXYZ=             12.5618 YYXZ=             -2.2388 ZZXY=              1.6930
 N-N= 5.458402255028D+02 E-N=-2.155128711467D+03  KE= 4.559788134073D+02
 Calling FoFJK, ICntrl=      2127 FMM=F ISym2X=0 I1Cent= 0 IOpClX= 0 NMat=1 NMatS=1 NMatT=0.
 ***** Axes restored to original set *****
 -------------------------------------------------------------------
 Center     Atomic                   Forces (Hartrees/Bohr)
 Number     Number              X              Y              Z
 -------------------------------------------------------------------
      1        6           0.012312658    0.007995631   -0.001071370
      2        6          -0.008485537    0.004922925   -0.001331976
      3        6           0.052281789   -0.003086695    0.003041604
      4        6          -0.007488850   -0.004045793   -0.000459075
      5        6           0.017348235   -0.011928944    0.000299834
      6        6          -0.013328211   -0.003448663    0.003055720
      7        1          -0.007174004   -0.007328549    0.000035479
      8        1           0.004425454   -0.009115881   -0.000052289
      9        1           0.006193953    0.008316645    0.000874218
     10        1           0.002557889    0.007871672    0.000425286
     11        6          -0.122499599    0.010260412   -0.006641081
     12        7           0.066292784   -0.005515574    0.003684239
     13        7           0.022031646    0.000107335    0.006515867
     14        6          -0.003973366   -0.015007922   -0.002860951
     15        1          -0.001102195    0.022931203   -0.003898494
     16        1          -0.015983792    0.000926014   -0.000535071
     17        1           0.003301926   -0.000398974    0.015319459
     18        6          -0.000846778   -0.010052379    0.009648983
     19        1           0.003597657   -0.011964788   -0.009813699
     20        1          -0.016525344    0.000233293   -0.001647904
     21        1           0.007063684    0.018329032   -0.014588779
 -------------------------------------------------------------------
 Cartesian Forces:  Max     0.122499599 RMS     0.020665270

 GradGradGradGradGradGradGradGradGradGradGradGradGradGradGradGradGradGrad
 Berny optimization.
 Internal  Forces:  Max     0.066623213 RMS     0.012090920
 Search for a local minimum.
 Step number   1 out of a maximum of  106
 All quantities printed in internal units (Hartrees-Bohrs-Radians)
 Mixed Optimization -- RFO/linear search
 Second derivative matrix not updated -- first step.
     Eigenvalues ---    0.00766   0.00766   0.00766   0.01669   0.02070
     Eigenvalues ---    0.02070   0.02070   0.02070   0.02070   0.02070
     Eigenvalues ---    0.02070   0.02070   0.03454   0.05044   0.05044
     Eigenvalues ---    0.07537   0.07537   0.07537   0.07537   0.16000
     Eigenvalues ---    0.16000   0.16000   0.16000   0.16000   0.16000
     Eigenvalues ---    0.16000   0.16000   0.16000   0.16000   0.16276
     Eigenvalues ---    0.17820   0.22000   0.22981   0.24000   0.25000
     Eigenvalues ---    0.25000   0.28519   0.35740   0.35740   0.35740
     Eigenvalues ---    0.37230   0.37230   0.37230   0.37230   0.37230
     Eigenvalues ---    0.37230   0.37230   0.37230   0.37230   0.37230
     Eigenvalues ---    0.41268   0.41640   0.45389   0.45389   0.45389
     Eigenvalues ---    0.45389   1.369801000.000001000.000001000.00000
     Eigenvalues --- 1000.000001000.000001000.000001000.000001000.00000
     Eigenvalues --- 1000.000001000.000001000.000001000.000001000.00000
     Eigenvalues --- 1000.000001000.000001000.000001000.000001000.00000
     Eigenvalues --- 1000.000001000.000001000.000001000.000001000.00000
     Eigenvalues --- 1000.000001000.000001000.000001000.000001000.00000
     Eigenvalues --- 1000.000001000.000001000.000001000.000001000.00000
     Eigenvalues --- 1000.000001000.000001000.000001000.000001000.00000
     Eigenvalues --- 1000.00000
 RFO step:  Lambda=-4.07368476D-02 EMin= 7.65814493D-03
 Linear search not attempted -- first point.
 Maximum step size (   0.300) exceeded in Quadratic search.
    -- Step size scaled by   0.631
 Iteration  1 RMS(Cart)=  0.10359185 RMS(Int)=  0.00458480
 Iteration  2 RMS(Cart)=  0.00718092 RMS(Int)=  0.00056629
 Iteration  3 RMS(Cart)=  0.00004233 RMS(Int)=  0.00056562
 Iteration  4 RMS(Cart)=  0.00000003 RMS(Int)=  0.00056562
 Variable       Old X    -DE/DX   Delta X   Delta X   Delta X     New X
                                 (Linear)    (Quad)   (Total)
    R1        2.64826  -0.00566   0.00000  -0.00742  -0.00742   2.64084
    R2        2.64826   0.00183   0.00000   0.00243   0.00245   2.65071
    R3        2.02201   0.01006   0.00000   0.01537   0.01537   2.03738
    R4        2.64826   0.00004   0.00000  -0.00025  -0.00026   2.64800
    R5        2.02201   0.01013   0.00000   0.01548   0.01548   2.03749
    R6        2.64826  -0.00125   0.00000  -0.00169  -0.00171   2.64655
    R7        2.91018  -0.05648   0.00000  -0.10944  -0.10944   2.80074
    R8        2.64826  -0.00377   0.00000  -0.00462  -0.00462   2.64364
    R9        2.02201   0.01040   0.00000   0.01589   0.01589   2.03790
   R10        2.64826   0.00989   0.00000   0.01293   0.01294   2.66120
   R11        2.02201   0.00602   0.00000   0.00920   0.00920   2.03121
   R12        2.77790   0.00295   0.00000   0.00468   0.00468   2.78257
   R13        2.16676   0.06662   0.00000   0.02983   0.02983   2.19659
   R14        2.77790   0.01622   0.00000   0.02573   0.02573   2.80363
   R15        2.77790   0.01718   0.00000   0.02725   0.02725   2.80515
   R16        2.02201   0.01982   0.00000   0.03031   0.03031   2.05231
   R17        2.02201   0.01601   0.00000   0.02447   0.02447   2.04648
   R18        2.02201   0.01560   0.00000   0.02385   0.02385   2.04586
   R19        2.02201   0.01574   0.00000   0.02407   0.02407   2.04607
   R20        2.02201   0.01656   0.00000   0.02531   0.02531   2.04732
   R21        2.02201   0.02363   0.00000   0.03613   0.03613   2.05814
    A1        2.09440   0.00548   0.00000   0.01285   0.01287   2.10727
    A2        2.09440  -0.00099   0.00000  -0.00090  -0.00092   2.09347
    A3        2.09440  -0.00450   0.00000  -0.01195  -0.01196   2.08243
    A4        2.09440  -0.00175   0.00000  -0.00544  -0.00545   2.08895
    A5        2.09440   0.00098   0.00000   0.00305   0.00304   2.09744
    A6        2.09440   0.00077   0.00000   0.00240   0.00239   2.09679
    A7        2.09440   0.00224   0.00000   0.00398   0.00395   2.09835
    A8        2.09440  -0.00104   0.00000  -0.00181  -0.00180   2.09260
    A9        2.09440  -0.00120   0.00000  -0.00216  -0.00215   2.09224
   A10        2.09440  -0.00109   0.00000  -0.00266  -0.00268   2.09172
   A11        2.09440   0.00016   0.00000   0.00013   0.00014   2.09453
   A12        2.09440   0.00093   0.00000   0.00253   0.00254   2.09693
   A13        2.09440   0.00252   0.00000   0.00687   0.00687   2.10127
   A14        2.09440  -0.00701   0.00000  -0.02153  -0.02153   2.07286
   A15        2.09440   0.00449   0.00000   0.01466   0.01466   2.10906
   A16        2.09440  -0.00741   0.00000  -0.01560  -0.01558   2.07882
   A17        2.09440  -0.02221   0.00000  -0.04850  -0.04852   2.04588
   A18        2.09440   0.02962   0.00000   0.06409   0.06407   2.15846
   A19        1.91063   0.02115   0.00000   0.09147   0.09028   2.00091
   A20        1.91063  -0.00310   0.00000   0.01623   0.01294   1.92357
   A21        1.91063  -0.00422   0.00000   0.01298   0.00988   1.92051
   A22        1.91063   0.01629   0.00000   0.05436   0.05413   1.96476
   A23        1.91063  -0.00446   0.00000  -0.01820  -0.01815   1.89248
   A24        1.91063   0.00042   0.00000   0.00238   0.00198   1.91261
   A25        1.91063  -0.00706   0.00000  -0.02431  -0.02411   1.88652
   A26        1.91063  -0.00380   0.00000  -0.00361  -0.00423   1.90640
   A27        1.91063  -0.00139   0.00000  -0.01061  -0.01073   1.89991
   A28        1.91063   0.00124   0.00000   0.00314   0.00304   1.91367
   A29        1.91063  -0.00137   0.00000  -0.00551  -0.00554   1.90509
   A30        1.91063   0.00929   0.00000   0.03119   0.03109   1.94173
   A31        1.91063  -0.00207   0.00000  -0.01044  -0.01046   1.90017
   A32        1.91063  -0.00394   0.00000  -0.00998  -0.01014   1.90049
   A33        1.91063  -0.00314   0.00000  -0.00839  -0.00842   1.90221
   A34        3.14159   0.00000   0.00000   0.00002   0.00002   3.14161
   A35        3.14159   0.00010   0.00000   0.00073   0.00073   3.14232
    D1        0.00000   0.00004   0.00000   0.00026   0.00030   0.00030
    D2        3.14159  -0.00035   0.00000  -0.00371  -0.00372   3.13787
    D3        3.14159   0.00049   0.00000   0.00495   0.00505  -3.13655
    D4        0.00000   0.00010   0.00000   0.00097   0.00102   0.00102
    D5        0.00000   0.00022   0.00000   0.00250   0.00245   0.00245
    D6       -3.14159  -0.00056   0.00000  -0.00602  -0.00575   3.13585
    D7       -3.14159  -0.00023   0.00000  -0.00218  -0.00227   3.13933
    D8        0.00000  -0.00101   0.00000  -0.01071  -0.01046  -0.01046
    D9        0.00000  -0.00018   0.00000  -0.00192  -0.00194  -0.00194
   D10       -3.14159  -0.00022   0.00000  -0.00228  -0.00230   3.13929
   D11       -3.14159   0.00021   0.00000   0.00205   0.00208  -3.13951
   D12        0.00000   0.00017   0.00000   0.00169   0.00172   0.00172
   D13        0.00000   0.00007   0.00000   0.00082   0.00079   0.00079
   D14        3.14159   0.00021   0.00000   0.00229   0.00231  -3.13928
   D15        3.14159   0.00012   0.00000   0.00118   0.00115  -3.14044
   D16        0.00000   0.00026   0.00000   0.00265   0.00267   0.00267
   D17        0.00000   0.00018   0.00000   0.00195   0.00200   0.00200
   D18        3.14159   0.00030   0.00000   0.00318   0.00327  -3.13832
   D19       -3.14159   0.00004   0.00000   0.00047   0.00048  -3.14111
   D20        0.00000   0.00016   0.00000   0.00171   0.00175   0.00175
   D21        0.00000  -0.00033   0.00000  -0.00361  -0.00360  -0.00360
   D22        3.14159   0.00045   0.00000   0.00492   0.00516  -3.13644
   D23       -3.14159  -0.00045   0.00000  -0.00484  -0.00490   3.13670
   D24        0.00000   0.00033   0.00000   0.00368   0.00386   0.00386
   D25        2.61799  -0.00215   0.00000  -0.03135  -0.03221   2.58578
   D26       -1.57080   0.00374   0.00000   0.05050   0.05143  -1.51936
   D27       -0.52360  -0.00292   0.00000  -0.03988  -0.04082  -0.56441
   D28        1.57080   0.00296   0.00000   0.04197   0.04283   1.61363
   D29        1.04720   0.00752   0.00000   0.07943   0.08046   1.12766
   D30        3.14159   0.00611   0.00000   0.07179   0.07238  -3.06922
   D31       -1.04720   0.00194   0.00000   0.04910   0.04962  -0.99758
   D32       -1.04720   0.00094   0.00000  -0.00441  -0.00480  -1.05200
   D33        1.04720  -0.00046   0.00000  -0.01205  -0.01288   1.03431
   D34        3.14159  -0.00463   0.00000  -0.03473  -0.03564   3.10595
   D35        1.04720  -0.00966   0.00000  -0.06201  -0.06149   0.98571
   D36        3.14159  -0.01228   0.00000  -0.07626  -0.07580   3.06579
   D37       -1.04720  -0.01128   0.00000  -0.07081  -0.07039  -1.11759
   D38        3.14159   0.01176   0.00000   0.06790   0.06749  -3.07410
   D39       -1.04720   0.00914   0.00000   0.05366   0.05319  -0.99401
   D40        1.04720   0.01014   0.00000   0.05911   0.05859   1.10579
         Item               Value     Threshold  Converged?
 Maximum Force            0.066623     0.000450     NO 
 RMS     Force            0.012091     0.000300     NO 
 Maximum Displacement     0.502827     0.001800     NO 
 RMS     Displacement     0.107179     0.001200     NO 
 Predicted change in Energy=-1.947674D-02
 GradGradGradGradGradGradGradGradGradGradGradGradGradGradGradGradGradGrad

                          Input orientation:                          
 ---------------------------------------------------------------------
 Center     Atomic      Atomic             Coordinates (Angstroms)
 Number     Number       Type             X           Y           Z
 ---------------------------------------------------------------------
      1          6           0       -2.336272   -0.682130    0.084076
      2          6           0       -0.951183   -0.854639    0.152683
      3          6           0       -0.118405    0.264003    0.289268
      4          6           0       -0.669839    1.549714    0.354510
      5          6           0       -2.056993    1.716738    0.283954
      6          6           0       -2.903297    0.599151    0.150045
      7          1           0       -2.981197   -1.540249   -0.016323
      8          1           0       -0.525232   -1.843957    0.104529
      9          1           0       -0.025511    2.408322    0.457488
     10          1           0       -2.461367    2.711450    0.332673
     11          6           0        1.351003    0.086169    0.365426
     12          7           0        2.503464   -0.053298    0.424745
     13          7           0       -4.370264    0.691790    0.062824
     14          6           0       -4.965951    1.813652    0.829440
     15          1           0       -4.664168    2.785111    0.449082
     16          1           0       -6.044174    1.743997    0.756187
     17          1           0       -4.680095    1.733888    1.870591
     18          6           0       -4.796091    0.763574   -1.357395
     19          1           0       -4.414054   -0.094619   -1.895789
     20          1           0       -5.878396    0.753694   -1.404921
     21          1           0       -4.428697    1.671183   -1.834310
 ---------------------------------------------------------------------
                    Distance matrix (angstroms):
                    1          2          3          4          5
     1  C    0.000000
     2  C    1.397475   0.000000
     3  C    2.419959   1.401262   0.000000
     4  C    2.798439   2.429157   1.400496   0.000000
     5  C    2.423328   2.802148   2.422517   1.398954   0.000000
     6  C    1.402694   2.433981   2.808439   2.435921   1.408249
     7  H    1.078136   2.149320   3.397688   3.876566   3.398865
     8  H    2.151772   1.078194   2.154793   3.405936   3.880340
     9  H    3.876847   3.405392   2.152913   1.078411   2.152980
    10  H    3.404972   3.876860   3.388414   2.135341   1.074868
    11  C    3.776961   2.496085   1.482089   2.495173   3.778867
    12  N    4.892292   3.556789   2.644472   3.555901   4.893937
    13  N    2.454635   3.753615   4.279320   3.809758   2.539811
    14  C    3.701311   4.867867   5.117802   4.330335   2.961247
    15  H    4.192146   5.207868   5.200527   4.182082   2.822419
    16  H    4.481781   5.749407   6.125612   5.392825   4.015141
    17  H    3.810811   4.853499   5.046796   4.291220   3.065676
    18  C    3.196656   4.436470   4.984156   4.535923   3.332448
    19  H    2.929541   4.094550   4.832771   4.667636   3.686195
    20  H    4.101872   5.412051   6.023917   5.555027   4.287526
    21  H    3.687347   4.735084   5.006830   4.351402   3.180267
                    6          7          8          9         10
     6  C    0.000000
     7  H    2.147272   0.000000
     8  H    3.409698   2.477621   0.000000
     9  H    3.413104   4.954976   4.296065   0.000000
    10  H    2.165747   4.297553   4.955037   2.457816   0.000000
    11  C    4.290526   4.643159   2.704387   2.701049   4.628967
    12  N    5.452909   5.699742   3.532986   3.529357   5.683472
    13  N    1.472474   2.630165   4.606085   4.688189   2.792084
    14  C    2.488197   3.987883   5.798584   4.989982   2.706614
    15  H    2.822855   4.664519   6.219146   4.653942   2.207104
    16  H    3.397526   4.556849   6.614891   6.062578   3.735215
    17  H    2.721197   4.143268   5.760454   4.910893   2.871162
    18  C    2.425300   3.224890   5.213125   5.362596   3.478719
    19  H    2.636122   2.770436   4.710030   5.573324   4.080815
    20  H    3.360509   3.947676   6.138615   6.361024   4.304432
    21  H    2.722822   3.964042   5.599316   5.018342   3.106181
                   11         12         13         14         15
    11  C    0.000000
    12  N    1.162383   0.000000
    13  N    5.761184   6.923458   0.000000
    14  C    6.565319   7.709827   1.483616   0.000000
    15  H    6.593449   7.709222   2.148853   1.086038   0.000000
    16  H    7.588790   8.740837   2.095201   1.082951   1.755748
    17  H    6.430757   7.542414   2.109498   1.082622   1.768053
    18  C    6.419794   7.558227   1.484421   2.431823   2.714291
    19  H    6.195293   7.296481   2.111048   3.372382   3.722073
    20  H    7.472880   8.617105   2.105368   2.635989   3.006382
    21  H    6.384046   7.492130   2.135823   2.721122   2.551502
                   16         17         18         19         20
    16  H    0.000000
    17  H    1.761451   0.000000
    18  C    2.643136   3.372663   0.000000
    19  H    3.615353   4.195215   1.082735   0.000000
    20  H    2.382975   3.622939   1.083394   1.762069   0.000000
    21  H    3.053808   3.713950   1.089119   1.766933   1.768555
                   21
    21  H    0.000000
 Stoichiometry    C9H10N2
 Framework group  C1[X(C9H10N2)]
 Deg. of freedom    57
 Full point group                 C1      NOp   1
 Largest Abelian subgroup         C1      NOp   1
 Largest concise Abelian subgroup C1      NOp   1
                         Standard orientation:                         
 ---------------------------------------------------------------------
 Center     Atomic      Atomic             Coordinates (Angstroms)
 Number     Number       Type             X           Y           Z
 ---------------------------------------------------------------------
      1          6           0       -0.128694    1.248321   -0.432678
      2          6           0        1.265521    1.188756   -0.358177
      3          6           0        1.890978   -0.015103   -0.007372
      4          6           0        1.123830   -1.153531    0.269854
      5          6           0       -0.271584   -1.087911    0.195113
      6          6           0       -0.910259    0.115970   -0.159754
      7          1           0       -0.614089    2.171177   -0.706733
      8          1           0        1.857599    2.063810   -0.573180
      9          1           0        1.608769   -2.077638    0.541571
     10          1           0       -0.843445   -1.971227    0.414362
     11          6           0        3.369420   -0.084258    0.070181
     12          7           0        4.528928   -0.138364    0.131394
     13          7           0       -2.371849    0.267700   -0.254157
     14          6           0       -3.093422   -0.952270   -0.692475
     15          1           0       -3.005420   -1.767251    0.019943
     16          1           0       -4.143578   -0.709671   -0.797840
     17          1           0       -2.710824   -1.274980   -1.652449
     18          6           0       -2.922229    0.747380    1.038319
     19          1           0       -2.438348    1.674621    1.318317
     20          1           0       -3.985010    0.926230    0.927632
     21          1           0       -2.766566    0.015450    1.829664
 ---------------------------------------------------------------------
 Rotational constants (GHZ):      3.4340669      0.5537736      0.5115923
 Standard basis: 6-31G (6D, 7F)
 There are   119 symmetry adapted basis functions of A   symmetry.
 Integral buffers will be    262144 words long.
 Raffenetti 2 integral format.
 Two-electron integral symmetry is turned on.
   119 basis functions,   282 primitive gaussians,   119 cartesian basis functions
    39 alpha electrons       39 beta electrons
       nuclear repulsion energy       543.0131149905 Hartrees.
 NAtoms=   21 NActive=   21 NUniq=   21 SFac= 7.50D-01 NAtFMM=   80 NAOKFM=F Big=F
 One-electron integrals computed using PRISM.
 NBasis=   119 RedAO= T  NBF=   119
 NBsUse=   119 1.00D-06 NBFU=   119
 Initial guess read from the read-write file.
 B after Tr=     0.000000    0.000000    0.000000
         Rot=    1.000000    0.000000    0.000000    0.000000 Ang=   0.00 deg.
 Initial guess orbital symmetries:
       Occupied  (A) (A) (A) (A) (A) (A) (A) (A) (A) (A) (A) (A)
                 (A) (A) (A) (A) (A) (A) (A) (A) (A) (A) (A) (A)
                 (A) (A) (A) (A) (A) (A) (A) (A) (A) (A) (A) (A)
                 (A) (A) (A)
       Virtual   (A) (A) (A) (A) (A) (A) (A) (A) (A) (A) (A) (A)
                 (A) (A) (A) (A) (A) (A) (A) (A) (A) (A) (A) (A)
                 (A) (A) (A) (A) (A) (A) (A) (A) (A) (A) (A) (A)
                 (A) (A) (A) (A) (A) (A) (A) (A) (A) (A) (A) (A)
                 (A) (A) (A) (A) (A) (A) (A) (A) (A) (A) (A) (A)
                 (A) (A) (A) (A) (A) (A) (A) (A) (A) (A) (A) (A)
                 (A) (A) (A) (A) (A) (A) (A) (A)
 Harris functional with IExCor=  402 diagonalized for initial guess.
 ExpMin= 1.61D-01 ExpMax= 4.17D+03 ExpMxC= 6.27D+02 IAcc=1 IRadAn=         1 AccDes= 0.00D+00
 HarFok:  IExCor=  402 AccDes= 0.00D+00 IRadAn=         1 IDoV= 1
 ScaDFX=  1.000000  1.000000  1.000000  1.000000
 FoFCou: FMM=F IPFlag=           0 FMFlag=      100000 FMFlg1=           0
         NFxFlg=           0 DoJE=T BraDBF=F KetDBF=T FulRan=T
         Omega=  0.000000  0.000000  1.000000  0.000000  0.000000 ICntrl=     500 IOpCl=  0
         NMat0=    1 NMatS0=    1 NMatT0=    0 NMatD0=    1 NMtDS0=    0 NMtDT0=    0
         I1Cent=           4 NGrid=           0.
 Petite list used in FoFCou.
 Requested convergence on RMS density matrix=1.00D-08 within 128 cycles.
 Requested convergence on MAX density matrix=1.00D-06.
 Requested convergence on             energy=1.00D-06.
 No special actions if energy rises.
 Keep R1 ints in memory in canonical form, NReq=26663852.
 Integral accuracy reduced to 1.0D-05 until final iterations.
 Initial convergence to 1.0D-05 achieved.  Increase integral accuracy.
 SCF Done:  E(RB3LYP) =  -458.325792070     A.U. after   14 cycles
             Convg  =    0.5064D-08             -V/T =  2.0057
 Calling FoFJK, ICntrl=      2127 FMM=F ISym2X=0 I1Cent= 0 IOpClX= 0 NMat=1 NMatS=1 NMatT=0.
 ***** Axes restored to original set *****
 -------------------------------------------------------------------
 Center     Atomic                   Forces (Hartrees/Bohr)
 Number     Number              X              Y              Z
 -------------------------------------------------------------------
      1        6           0.007613904    0.000580904   -0.001446369
      2        6          -0.008017981    0.000955945   -0.001502928
      3        6           0.035590159   -0.003573290    0.001803562
      4        6          -0.006962508   -0.000326684    0.000197109
      5        6           0.002246522   -0.006726659    0.000968966
      6        6          -0.014685055   -0.001121298    0.004071535
      7        1          -0.003743855   -0.002461031    0.000665866
      8        1           0.001917566   -0.003573780    0.000098520
      9        1           0.002530004    0.003110370    0.000296475
     10        1          -0.003028786    0.005532367    0.000484282
     11        6          -0.057080596    0.006990535   -0.002738392
     12        7           0.027217977   -0.003295451    0.001337445
     13        7           0.017254872    0.010395920   -0.001983307
     14        6           0.005901147   -0.012035830   -0.002188913
     15        1           0.001478093    0.011378768   -0.002940908
     16        1          -0.007024332   -0.001341683   -0.000044238
     17        1           0.001845145   -0.000219430    0.006508360
     18        6           0.000015907   -0.006046824    0.006863213
     19        1           0.002043234   -0.005024767   -0.003866565
     20        1          -0.007084286   -0.000746390   -0.000446779
     21        1           0.001972869    0.007548309   -0.006136934
 -------------------------------------------------------------------
 Cartesian Forces:  Max     0.057080596 RMS     0.010551507

 GradGradGradGradGradGradGradGradGradGradGradGradGradGradGradGradGradGrad
 Berny optimization.
 Using GEDIIS/GDIIS optimizer.
 Internal  Forces:  Max     0.030122822 RMS     0.005266972
 Search for a local minimum.
 Step number   2 out of a maximum of  106
 All quantities printed in internal units (Hartrees-Bohrs-Radians)
 Mixed Optimization -- RFO/linear search
 Update second derivatives using D2CorX and points    1    2
 DE= -1.57D-02 DEPred=-1.95D-02 R= 8.08D-01
 SS=  1.41D+00  RLast= 3.00D-01 DXNew= 5.0454D-01 8.9954D-01
 Trust test= 8.08D-01 RLast= 3.00D-01 DXMaxT set to 5.05D-01
 Use linear search instead of GDIIS.
     Eigenvalues ---    0.00761   0.00766   0.00778   0.01664   0.02069
     Eigenvalues ---    0.02070   0.02070   0.02070   0.02070   0.02070
     Eigenvalues ---    0.02070   0.02071   0.03433   0.05044   0.05044
     Eigenvalues ---    0.07229   0.07313   0.07545   0.07625   0.15714
     Eigenvalues ---    0.16000   0.16000   0.16000   0.16000   0.16000
     Eigenvalues ---    0.16000   0.16000   0.16000   0.16104   0.18501
     Eigenvalues ---    0.19501   0.21989   0.22762   0.23222   0.24019
     Eigenvalues ---    0.25000   0.29098   0.34603   0.35740   0.36112
     Eigenvalues ---    0.37142   0.37230   0.37230   0.37230   0.37230
     Eigenvalues ---    0.37230   0.37230   0.37230   0.37230   0.40224
     Eigenvalues ---    0.41290   0.44481   0.45309   0.45389   0.45389
     Eigenvalues ---    0.48392   1.325111000.000001000.000001000.00000
     Eigenvalues --- 1000.000001000.000001000.000001000.000001000.00000
     Eigenvalues --- 1000.000001000.000001000.000001000.000001000.00000
     Eigenvalues --- 1000.000001000.000001000.000001000.000001000.00000
     Eigenvalues --- 1000.000001000.000001000.000001000.000001000.00000
     Eigenvalues --- 1000.000001000.000001000.000001000.000001000.00000
     Eigenvalues --- 1000.000001000.000001000.000001000.000001000.00000
     Eigenvalues --- 1000.000001000.000001000.000001000.000001000.00000
     Eigenvalues --- 1000.00000
 RFO step:  Lambda=-1.20307340D-02 EMin= 7.60813005D-03
 Quartic linear search produced a step of  0.60011.
 Iteration  1 RMS(Cart)=  0.11062699 RMS(Int)=  0.00643135
 Iteration  2 RMS(Cart)=  0.01502756 RMS(Int)=  0.00148506
 Iteration  3 RMS(Cart)=  0.00012348 RMS(Int)=  0.00148370
 Iteration  4 RMS(Cart)=  0.00000018 RMS(Int)=  0.00148370
 Variable       Old X    -DE/DX   Delta X   Delta X   Delta X     New X
                                 (Linear)    (Quad)   (Total)
    R1        2.64084  -0.00292  -0.00445  -0.00498  -0.00942   2.63143
    R2        2.65071   0.00169   0.00147   0.00361   0.00509   2.65580
    R3        2.03738   0.00414   0.00923   0.00723   0.01646   2.05384
    R4        2.64800   0.00454  -0.00016   0.01615   0.01600   2.66401
    R5        2.03749   0.00403   0.00929   0.00674   0.01603   2.05352
    R6        2.64655   0.00380  -0.00103   0.01442   0.01339   2.65994
    R7        2.80074  -0.03012  -0.06567  -0.09143  -0.15711   2.64363
    R8        2.64364  -0.00190  -0.00277  -0.00363  -0.00642   2.63722
    R9        2.03790   0.00402   0.00954   0.00641   0.01595   2.05385
   R10        2.66120  -0.00267   0.00777  -0.01789  -0.01013   2.65107
   R11        2.03121   0.00628   0.00552   0.01985   0.02537   2.05658
   R12        2.78257  -0.01585   0.00281  -0.07021  -0.06740   2.71517
   R13        2.19659   0.02745   0.01790   0.01164   0.02954   2.22612
   R14        2.80363  -0.00186   0.01544  -0.02402  -0.00858   2.79505
   R15        2.80515   0.00410   0.01635   0.00033   0.01668   2.82183
   R16        2.05231   0.01162   0.01819   0.02840   0.04659   2.09890
   R17        2.04648   0.00708   0.01469   0.01353   0.02822   2.07470
   R18        2.04586   0.00676   0.01431   0.01263   0.02694   2.07280
   R19        2.04607   0.00662   0.01444   0.01192   0.02637   2.07244
   R20        2.04732   0.00710   0.01519   0.01310   0.02829   2.07561
   R21        2.05814   0.00964   0.02168   0.01667   0.03835   2.09649
    A1        2.10727   0.00004   0.00773  -0.00826  -0.00054   2.10673
    A2        2.09347   0.00152  -0.00055   0.01497   0.01437   2.10784
    A3        2.08243  -0.00157  -0.00718  -0.00676  -0.01399   2.06844
    A4        2.08895  -0.00048  -0.00327   0.00187  -0.00144   2.08751
    A5        2.09744   0.00061   0.00183   0.00226   0.00401   2.10144
    A6        2.09679  -0.00014   0.00144  -0.00419  -0.00283   2.09396
    A7        2.09835  -0.00143   0.00237  -0.00865  -0.00629   2.09206
    A8        2.09260   0.00081  -0.00108   0.00481   0.00373   2.09632
    A9        2.09224   0.00061  -0.00129   0.00383   0.00253   2.09477
   A10        2.09172   0.00038  -0.00161   0.00497   0.00333   2.09505
   A11        2.09453  -0.00035   0.00008  -0.00328  -0.00319   2.09135
   A12        2.09693  -0.00003   0.00152  -0.00170  -0.00017   2.09676
   A13        2.10127  -0.00013   0.00412  -0.00679  -0.00269   2.09858
   A14        2.07286   0.00078  -0.01292   0.02043   0.00751   2.08037
   A15        2.10906  -0.00065   0.00880  -0.01363  -0.00483   2.10423
   A16        2.07882   0.00161  -0.00935   0.01686   0.00751   2.08633
   A17        2.04588   0.00070  -0.02912   0.03496   0.00584   2.05172
   A18        2.15846  -0.00231   0.03845  -0.05180  -0.01336   2.14510
   A19        2.00091  -0.00274   0.05418  -0.02713   0.01798   2.01889
   A20        1.92357   0.00375   0.00777   0.07220   0.07267   1.99624
   A21        1.92051   0.00285   0.00593   0.06158   0.05981   1.98032
   A22        1.96476   0.00358   0.03248   0.00516   0.03744   2.00220
   A23        1.89248  -0.00146  -0.01089  -0.00581  -0.01668   1.87580
   A24        1.91261  -0.00025   0.00119  -0.00431  -0.00356   1.90905
   A25        1.88652  -0.00075  -0.01447   0.00885  -0.00540   1.88112
   A26        1.90640  -0.00105  -0.00254  -0.00062  -0.00373   1.90267
   A27        1.89991  -0.00017  -0.00644  -0.00340  -0.01006   1.88984
   A28        1.91367   0.00031   0.00183  -0.00019   0.00143   1.91510
   A29        1.90509  -0.00072  -0.00332  -0.00555  -0.00893   1.89617
   A30        1.94173   0.00352   0.01866   0.01756   0.03604   1.97777
   A31        1.90017  -0.00070  -0.00628  -0.00732  -0.01367   1.88650
   A32        1.90049  -0.00141  -0.00609  -0.00251  -0.00891   1.89158
   A33        1.90221  -0.00109  -0.00505  -0.00248  -0.00757   1.89464
   A34        3.14161   0.00003   0.00001   0.00070   0.00071   3.14232
   A35        3.14232   0.00007   0.00044   0.00143   0.00186   3.14418
    D1        0.00030   0.00031   0.00018   0.01460   0.01477   0.01507
    D2        3.13787  -0.00010  -0.00223  -0.00413  -0.00646   3.13141
    D3       -3.13655   0.00059   0.00303   0.02694   0.03011  -3.10643
    D4        0.00102   0.00018   0.00061   0.00821   0.00889   0.00991
    D5        0.00245  -0.00030   0.00147  -0.01476  -0.01338  -0.01094
    D6        3.13585  -0.00026  -0.00345  -0.01117  -0.01452   3.12133
    D7        3.13933  -0.00057  -0.00136  -0.02696  -0.02832   3.11101
    D8       -0.01046  -0.00054  -0.00628  -0.02337  -0.02945  -0.03991
    D9       -0.00194  -0.00006  -0.00117  -0.00270  -0.00388  -0.00582
   D10        3.13929  -0.00024  -0.00138  -0.01106  -0.01246   3.12683
   D11       -3.13951   0.00035   0.00125   0.01600   0.01724  -3.12228
   D12        0.00172   0.00017   0.00103   0.00765   0.00865   0.01038
   D13        0.00079  -0.00018   0.00048  -0.00874  -0.00830  -0.00750
   D14       -3.13928  -0.00004   0.00139  -0.00244  -0.00105  -3.14033
   D15       -3.14044   0.00000   0.00069  -0.00038   0.00028  -3.14016
   D16        0.00267   0.00014   0.00160   0.00592   0.00752   0.01019
   D17        0.00200   0.00018   0.00120   0.00845   0.00969   0.01169
   D18       -3.13832   0.00003   0.00196   0.00066   0.00267  -3.13566
   D19       -3.14111   0.00005   0.00029   0.00214   0.00242  -3.13869
   D20        0.00175  -0.00011   0.00105  -0.00565  -0.00460  -0.00285
   D21       -0.00360   0.00005  -0.00216   0.00318   0.00104  -0.00256
   D22       -3.13644   0.00000   0.00309  -0.00112   0.00213  -3.13430
   D23        3.13670   0.00021  -0.00294   0.01115   0.00816  -3.13832
   D24        0.00386   0.00016   0.00232   0.00686   0.00926   0.01312
   D25        2.58578  -0.00072  -0.01933   0.07265   0.05266   2.63844
   D26       -1.51936   0.00405   0.03086   0.19323   0.22480  -1.29456
   D27       -0.56441  -0.00067  -0.02449   0.07680   0.05159  -0.51282
   D28        1.61363   0.00411   0.02570   0.19737   0.22374   1.83736
   D29        1.12766   0.00338   0.04828   0.10548   0.15426   1.28192
   D30       -3.06922   0.00369   0.04343   0.11585   0.15929  -2.90992
   D31       -0.99758   0.00248   0.02978   0.10585   0.13570  -0.86187
   D32       -1.05200  -0.00186  -0.00288  -0.02059  -0.02336  -1.07536
   D33        1.03431  -0.00156  -0.00773  -0.01023  -0.01833   1.01598
   D34        3.10595  -0.00277  -0.02139  -0.02022  -0.04192   3.06403
   D35        0.98571  -0.00039  -0.03690  -0.05077  -0.08907   0.89664
   D36        3.06579  -0.00148  -0.04549  -0.06315  -0.11011   2.95568
   D37       -1.11759  -0.00109  -0.04224  -0.05880  -0.10263  -1.22022
   D38       -3.07410   0.00095   0.04050   0.01318   0.05527  -3.01883
   D39       -0.99401  -0.00015   0.03192   0.00080   0.03423  -0.95978
   D40        1.10579   0.00025   0.03516   0.00515   0.04171   1.14750
         Item               Value     Threshold  Converged?
 Maximum Force            0.030123     0.000450     NO 
 RMS     Force            0.005267     0.000300     NO 
 Maximum Displacement     0.343542     0.001800     NO 
 RMS     Displacement     0.121193     0.001200     NO 
 Predicted change in Energy=-5.760712D-03
 GradGradGradGradGradGradGradGradGradGradGradGradGradGradGradGradGradGrad

                          Input orientation:                          
 ---------------------------------------------------------------------
 Center     Atomic      Atomic             Coordinates (Angstroms)
 Number     Number       Type             X           Y           Z
 ---------------------------------------------------------------------
      1          6           0       -2.330345   -0.638485   -0.004541
      2          6           0       -0.953745   -0.836413    0.064986
      3          6           0       -0.103182    0.262670    0.301418
      4          6           0       -0.649173    1.550535    0.458196
      5          6           0       -2.029079    1.739675    0.370693
      6          6           0       -2.878731    0.647345    0.140474
      7          1           0       -3.005806   -1.476812   -0.153514
      8          1           0       -0.535663   -1.834104   -0.038396
      9          1           0        0.007285    2.397596    0.639282
     10          1           0       -2.436044    2.742112    0.488528
     11          6           0        1.279984    0.073181    0.390901
     12          7           0        2.444728   -0.086989    0.464606
     13          7           0       -4.305470    0.777607    0.031560
     14          6           0       -4.907763    1.889923    0.798151
     15          1           0       -4.724880    2.899567    0.372933
     16          1           0       -5.993205    1.726394    0.818738
     17          1           0       -4.536297    1.864011    1.829889
     18          6           0       -4.830214    0.663101   -1.361755
     19          1           0       -4.440425   -0.248601   -1.830358
     20          1           0       -5.924862    0.583460   -1.319233
     21          1           0       -4.563831    1.527770   -2.003775
 ---------------------------------------------------------------------
                    Distance matrix (angstroms):
                    1          2          3          4          5
     1  C    0.000000
     2  C    1.392493   0.000000
     3  C    2.421971   1.409731   0.000000
     4  C    2.798620   2.438216   1.407580   0.000000
     5  C    2.426356   2.808207   2.428049   1.395554   0.000000
     6  C    1.405388   2.431626   2.806697   2.426443   1.402887
     7  H    1.086845   2.160742   3.414379   3.884937   3.402143
     8  H    2.156741   1.086677   2.167712   3.422757   3.894809
     9  H    3.885461   3.422311   2.164316   1.086849   2.156798
    10  H    3.418000   3.896465   3.409529   2.147949   1.088295
    11  C    3.700989   2.433748   1.398951   2.430792   3.705066
    12  N    4.829655   3.502992   2.576963   3.500536   4.833268
    13  N    2.430584   3.720247   4.242312   3.761376   2.494503
    14  C    3.698682   4.858466   5.096930   4.285597   2.914123
    15  H    4.288834   5.317315   5.321506   4.294013   2.934740
    16  H    4.437002   5.703707   6.091180   5.359067   3.989388
    17  H    3.807078   4.820980   4.955101   4.133950   2.903593
    18  C    3.128178   4.394444   5.027058   4.645520   3.465074
    19  H    2.817455   4.011831   4.859788   4.779954   3.822623
    20  H    4.017725   5.352018   6.051559   5.650432   4.401114
    21  H    3.698386   4.785588   5.178010   4.624540   3.479650
                    6          7          8          9         10
     6  C    0.000000
     7  H    2.148167   0.000000
     8  H    3.417535   2.498502   0.000000
     9  H    3.411931   4.971748   4.319876   0.000000
    10  H    2.169139   4.305365   4.983056   2.472099   0.000000
    11  C    4.205626   4.589865   2.668071   2.661647   4.576199
    12  N    5.383635   5.658798   3.491154   3.484940   5.641483
    13  N    1.436808   2.608790   4.586651   4.646886   2.750065
    14  C    2.468504   3.982212   5.803744   4.943750   2.632771
    15  H    2.921439   4.731285   6.334538   4.766162   2.297156
    16  H    3.365165   4.486687   6.572411   6.040579   3.714043
    17  H    2.661189   4.175811   5.759480   4.727197   2.642229
    18  C    2.462768   3.060643   5.141057   5.514890   3.671223
    19  H    2.669417   2.525557   4.579531   5.734422   4.282422
    20  H    3.378422   3.758259   6.043891   6.505170   4.483260
    21  H    2.865748   3.857256   5.602771   5.351397   3.494807
                   11         12         13         14         15
    11  C    0.000000
    12  N    1.178014   0.000000
    13  N    5.641156   6.819108   0.000000
    14  C    6.461782   7.620929   1.479076   0.000000
    15  H    6.636805   7.767317   2.189784   1.110692   0.000000
    16  H    7.470973   8.637852   2.090047   1.097884   1.784300
    17  H    6.253550   7.375983   2.113656   1.096878   1.797404
    18  C    6.383911   7.538104   1.493249   2.485216   2.832316
    19  H    6.144966   7.259360   2.130270   3.420635   3.853098
    20  H    7.422583   8.583800   2.117725   2.687870   3.109297
    21  H    6.480778   7.603963   2.184510   2.846090   2.748909
                   16         17         18         19         20
    16  H    0.000000
    17  H    1.778748   0.000000
    18  C    2.690295   3.422741   0.000000
    19  H    3.650951   4.227260   1.096688   0.000000
    20  H    2.425260   3.672177   1.098365   1.776831   0.000000
    21  H    3.170038   3.848479   1.109415   1.789077   1.792407
                   21
    21  H    0.000000
 Stoichiometry    C9H10N2
 Framework group  C1[X(C9H10N2)]
 Deg. of freedom    57
 Full point group                 C1      NOp   1
 Largest Abelian subgroup         C1      NOp   1
 Largest concise Abelian subgroup C1      NOp   1
                         Standard orientation:                         
 ---------------------------------------------------------------------
 Center     Atomic      Atomic             Coordinates (Angstroms)
 Number     Number       Type             X           Y           Z
 ---------------------------------------------------------------------
      1          6           0       -0.135922    1.214706   -0.442448
      2          6           0        1.253864    1.186164   -0.360503
      3          6           0        1.905732   -0.010172    0.001699
      4          6           0        1.149020   -1.162929    0.284219
      5          6           0       -0.244083   -1.118525    0.214468
      6          6           0       -0.895716    0.069019   -0.150507
      7          1           0       -0.656280    2.117495   -0.751371
      8          1           0        1.837006    2.072240   -0.596477
      9          1           0        1.652216   -2.084588    0.564540
     10          1           0       -0.815856   -2.016359    0.441088
     11          6           0        3.302276   -0.055512    0.070052
     12          7           0        4.478240   -0.092459    0.128858
     13          7           0       -2.325808    0.181343   -0.231971
     14          6           0       -3.047521   -1.062173   -0.579053
     15          1           0       -3.094977   -1.814669    0.236505
     16          1           0       -4.077308   -0.784099   -0.838984
     17          1           0       -2.581690   -1.519432   -1.460561
     18          6           0       -2.949926    0.936167    0.895197
     19          1           0       -2.444883    1.901789    1.018604
     20          1           0       -4.002108    1.130842    0.647364
     21          1           0       -2.909489    0.394124    1.862336
 ---------------------------------------------------------------------
 Rotational constants (GHZ):      3.3938889      0.5672176      0.5154068
 Standard basis: 6-31G (6D, 7F)
 There are   119 symmetry adapted basis functions of A   symmetry.
 Integral buffers will be    262144 words long.
 Raffenetti 2 integral format.
 Two-electron integral symmetry is turned on.
   119 basis functions,   282 primitive gaussians,   119 cartesian basis functions
    39 alpha electrons       39 beta electrons
       nuclear repulsion energy       544.6598004810 Hartrees.
 NAtoms=   21 NActive=   21 NUniq=   21 SFac= 7.50D-01 NAtFMM=   80 NAOKFM=F Big=F
 One-electron integrals computed using PRISM.
 NBasis=   119 RedAO= T  NBF=   119
 NBsUse=   119 1.00D-06 NBFU=   119
 Initial guess read from the read-write file.
 B after Tr=     0.000000    0.000000    0.000000
         Rot=    1.000000    0.000000    0.000000    0.000000 Ang=   0.00 deg.
 Initial guess orbital symmetries:
       Occupied  (A) (A) (A) (A) (A) (A) (A) (A) (A) (A) (A) (A)
                 (A) (A) (A) (A) (A) (A) (A) (A) (A) (A) (A) (A)
                 (A) (A) (A) (A) (A) (A) (A) (A) (A) (A) (A) (A)
                 (A) (A) (A)
       Virtual   (A) (A) (A) (A) (A) (A) (A) (A) (A) (A) (A) (A)
                 (A) (A) (A) (A) (A) (A) (A) (A) (A) (A) (A) (A)
                 (A) (A) (A) (A) (A) (A) (A) (A) (A) (A) (A) (A)
                 (A) (A) (A) (A) (A) (A) (A) (A) (A) (A) (A) (A)
                 (A) (A) (A) (A) (A) (A) (A) (A) (A) (A) (A) (A)
                 (A) (A) (A) (A) (A) (A) (A) (A) (A) (A) (A) (A)
                 (A) (A) (A) (A) (A) (A) (A) (A)
 Harris functional with IExCor=  402 diagonalized for initial guess.
 ExpMin= 1.61D-01 ExpMax= 4.17D+03 ExpMxC= 6.27D+02 IAcc=1 IRadAn=         1 AccDes= 0.00D+00
 HarFok:  IExCor=  402 AccDes= 0.00D+00 IRadAn=         1 IDoV= 1
 ScaDFX=  1.000000  1.000000  1.000000  1.000000
 FoFCou: FMM=F IPFlag=           0 FMFlag=      100000 FMFlg1=           0
[...]
 93275,-0.04442048,0.12490054,0.09261573,0.00766718,-0.00644146,-0.0038
 0379,-0.04776953,-0.00317739,-0.01360437,-0.28909353,0.04234235,-0.027
 75203,-0.03831802,0.02078798,0.00388444,0.00931665,0.00379288,0.003102
 50,-0.00728112,0.00114737,-0.00086146,-0.00051952,0.00027458,-0.000216
 10,0.00145422,0.00059263,0.00165831,0.00122816,-0.00184587,0.00005225,
 -0.00025923,0.00014318,-0.00023835,1.44854945,-0.00313079,0.00008397,-
 0.00476188,-0.01889673,0.00990853,0.00100373,0.04234452,-0.08397221,-0
 .00710697,0.03650815,-0.00567298,0.00414925,0.00048078,-0.00263432,-0.
 00564047,0.00114906,-0.00201744,-0.00068468,-0.00094949,0.00058901,-0.
 00057358,-0.00089635,-0.00065960,0.00190089,-0.00035700,-0.00028627,0.
 00226575,0.00136739,0.00015982,-0.00030068,-0.25918152,0.15687158,-0.0
 0169423,-0.00554258,0.00247293,-0.02361436,0.00471042,-0.00123708,-0.0
 2775437,-0.00710673,-0.06819732,0.01389407,0.00044261,0.00489197,0.000
 99389,-0.00485988,0.00354307,-0.00086353,-0.00068474,-0.00115669,-0.00
 099570,-0.00028520,0.00072203,0.00070991,0.00225230,-0.00237489,0.0010
 0003,0.00191446,-0.00252241,0.00054108,-0.00058898,0.00089090,0.156692
 02,-0.01522582,0.11203002,-0.00384078,0.00187231,0.00051405,0.00844411
 ,0.00637663,0.00575333,-0.02093396,0.00733035,-0.00403123,0.00621168,-
 0.00923656,-0.00471480,-0.00418400,-0.00039839,-0.00101311,0.00500893,
 -0.00089932,0.00057589,-0.00029255,0.00001503,0.00001645,-0.00009688,-
 0.00053386,-0.00048259,0.00001920,0.00067341,0.00031357,-0.00034385,0.
 00002696,0.00001190,-1.09051503,0.20268863,-0.11975082,1.10422428,0.00
 104178,-0.00008194,0.00080786,0.00013785,-0.00258735,-0.00242124,0.007
 32834,0.01669366,0.00221111,-0.00299775,0.00109377,-0.00081676,0.00043
 276,0.00048339,0.00102410,-0.00090070,0.00061020,0.00009370,0.00024227
 ,-0.00018206,0.00014601,0.00018610,0.00028849,-0.00009584,-0.00004652,
 0.00009705,-0.00027265,-0.00020030,-0.00009749,0.00009555,0.20269012,-
 0.07273654,0.02432435,-0.20863425,0.05659241,-0.00001534,0.00100370,-0
 .00032910,0.00178109,-0.00094934,0.00108171,-0.00402934,0.00221095,0.0
 1639365,-0.00074219,-0.00228874,-0.00036620,-0.00048393,0.00082828,-0.
 00055163,0.00057740,0.00009362,0.00032559,0.00016114,0.00009250,-0.000
 22481,-0.00002411,-0.00026574,0.00033303,-0.00014485,-0.00010277,0.000
 40844,-0.00013278,0.00014905,-0.00025809,-0.11975275,0.02432456,-0.048
 60391,0.12326388,-0.02503694,0.03175119,-0.03571318,0.02248467,0.00379
 823,0.01048757,-0.00203419,0.00013661,-0.01224069,0.00254287,-0.001106
 74,0.01087520,-0.00245502,-0.00004197,-0.04689716,-0.00390386,-0.01564
 232,-0.29744069,0.04013407,-0.03152656,0.00012655,-0.00062981,0.000175
 21,-0.00012752,0.00029193,0.00013891,-0.00048836,-0.00014545,-0.000224
 74,0.00046431,0.00005587,0.00069294,0.00773995,-0.00150664,0.00100222,
 -0.00498003,0.00096477,-0.00058803,0.64638258,0.04303752,-0.00501219,0
 .00124916,-0.00406813,-0.00378944,-0.00618685,0.00253624,0.00161336,0.
 00206149,-0.00041141,-0.00442398,-0.00572816,-0.02445940,0.01339399,-0
 .00292976,0.04017813,-0.11727062,-0.03010571,-0.00136228,-0.00013881,0
 .00106371,0.00136980,-0.00023642,0.00012704,-0.00122297,0.00035852,-0.
 00010636,0.00079003,-0.00069584,0.00121681,-0.00150272,0.00048054,0.00
 031873,0.00096218,-0.00018426,0.00003494,-0.06020002,0.48878557,0.0168
 8607,-0.00360207,0.01062832,-0.00116710,-0.00570365,0.00051116,-0.0010
 9854,0.00205916,0.00036753,0.00124923,-0.00620764,0.00076053,-0.028723
 67,0.00192359,0.00340406,-0.03159274,-0.03010077,-0.08174988,-0.000292
 47,0.00123646,-0.00159485,0.00082491,-0.00012777,0.00018556,-0.0009112
 2,0.00014840,-0.00004857,0.00115789,0.00104322,-0.00137586,0.00099628,
 0.00031897,-0.00013769,-0.00058428,0.00003464,0.00000131,0.08816485,0.
 22681565,0.27558615,-0.00263105,-0.00319712,-0.00333574,-0.00129140,0.
 00159762,0.00039749,0.00151469,-0.00038101,0.00008310,-0.00105502,0.00
 152369,0.00060470,-0.00093185,0.00125183,0.00118659,-0.02599435,0.0344
 0721,0.01577070,0.00006825,0.00009724,0.00016114,-0.00037711,-0.000018
 25,-0.00002097,0.00010707,0.00001070,-0.00000810,-0.00316772,0.0015600
 1,0.00018954,-0.00105259,0.00020109,-0.00004418,0.00059804,-0.00011494
 ,0.00005830,-0.11304664,0.03804544,0.01074685,0.60549863,-0.00263460,0
 .00358246,-0.00016759,0.00043139,-0.00028325,-0.00093182,-0.00244272,0
 .00179838,0.00048415,0.00297961,-0.00210254,-0.00095761,-0.00720973,0.
 00112537,0.00065559,0.01722152,-0.00734710,-0.00061194,0.00004618,-0.0
 0019675,0.00011096,-0.00019473,0.00003787,0.00019290,-0.00023715,-0.00
 001022,-0.00017086,-0.00061231,-0.00040346,-0.00056038,0.00182449,-0.0
 0048824,0.00032604,-0.00121216,0.00022577,-0.00016826,0.03219772,-0.16
 327886,-0.06072330,0.03842803,0.50350499,-0.00297780,-0.00029644,0.001
 98185,-0.00033952,-0.00065626,0.00084058,-0.00123224,0.00096818,0.0004
 5974,0.00152981,-0.00130392,0.00003775,-0.00419495,0.00265245,-0.00188
 253,0.00487117,0.00341671,0.00333273,0.00012851,0.00012286,-0.00024400
 ,-0.00013308,0.00023451,-0.00021934,-0.00016605,-0.00011245,0.00005984
 ,-0.00119353,-0.00005202,-0.00006482,0.00099229,-0.00005724,-0.0001278
 8,-0.00064160,0.00009075,-0.00005232,0.00698290,-0.05931583,-0.0920702
 9,0.03716593,-0.02147995,0.54663622,-0.00094235,0.00038653,0.00057109,
 0.00098629,0.00018518,0.00063547,0.00005645,-0.00100059,-0.00060772,-0
 .00125450,0.00041805,0.00071985,0.00074494,-0.00101660,-0.00052160,0.0
 0270447,0.00025972,-0.00036680,0.00002337,0.00004384,-0.00007739,0.000
 02981,0.00001621,-0.00004207,-0.00000352,0.00000926,0.00001340,-0.0011
 0976,0.00126387,-0.00122234,-0.00009886,0.00010171,-0.00019954,0.00009
 176,-0.00003329,0.00005174,0.00593747,0.01758889,-0.00339812,-0.099525
 30,-0.09058365,0.03976611,0.10322417,0.00150007,-0.00101482,-0.0007818
 8,-0.00095503,0.00018692,-0.00033419,0.00087606,0.00003586,0.00031938,
 -0.00037465,0.00041223,0.00008002,0.00109063,0.00036812,0.00007858,-0.
 00671016,0.00086444,-0.00053594,-0.00010953,0.00002071,0.00019744,0.00
 000718,-0.00004758,0.00003122,0.00004799,0.00001717,0.00001534,0.00041
 999,0.00034050,0.00103565,-0.00058523,0.00016679,-0.00002201,0.0003612
 6,-0.00006912,0.00003040,-0.00146132,-0.03108772,-0.00361544,-0.088759
 27,-0.21524149,0.07698626,0.09596233,0.24815968,0.00005106,-0.00001880
 ,-0.00043557,-0.00001683,0.00004482,-0.00007386,0.00017129,0.00000036,
 0.00000207,0.00003094,-0.00027787,-0.00022582,0.00035750,0.00104877,0.
 00039475,-0.00106861,0.00032955,0.00054772,-0.00003282,-0.00005883,0.0
 0004447,-0.00000571,-0.00003143,0.00001809,-0.00001111,0.00001942,0.00
 001037,-0.00027956,-0.00008995,-0.00042319,-0.00007607,-0.00003694,-0.
 00001777,0.00007540,-0.00000968,0.00000989,-0.00683785,-0.01962091,0.0
 0670991,0.04040835,0.07792505,-0.08630823,-0.04507530,-0.07821083,0.09
 038298,-0.00051319,-0.00022106,-0.00035425,-0.00001781,0.00023141,0.00
 014408,-0.00015860,0.00014353,0.00006168,0.00024968,-0.00004485,-0.000
 00382,0.00014032,-0.00007769,-0.00012214,0.00150892,0.00158583,0.00134
 876,0.00003166,0.00011368,0.00007712,-0.00007979,0.00001850,0.00000253
 ,-0.00003198,-0.00000386,-0.00001312,0.00003422,0.00022894,0.00025473,
 0.00019648,-0.00002302,0.00003710,-0.00015833,0.00002858,-0.00001974,-
 0.01715707,0.00088359,-0.00313867,-0.30835239,0.00515427,-0.05727180,-
 0.01299339,0.00053571,-0.00443035,0.33728390,0.00167197,0.00013517,0.0
 0023071,-0.00017732,-0.00037894,-0.00027934,-0.00002169,0.00010446,0.0
 0008210,0.00012659,0.00028330,0.00011734,-0.00059746,-0.00051615,-0.00
 075654,-0.00031722,-0.00435525,-0.00291288,-0.00002533,-0.00000176,-0.
 00001513,0.00010971,-0.00002793,0.00003383,0.00003545,-0.00000290,-0.0
 0000198,-0.00026857,0.00045771,0.00050221,-0.00006120,0.00004998,0.000
 03224,0.00002682,-0.00001112,-0.00000235,0.03323110,-0.00693603,0.0043
 0272,-0.00616675,-0.04900554,-0.00075791,-0.02733742,0.00158694,-0.007
 20280,-0.00462041,0.05892644,0.00085082,-0.00021699,0.00045701,-0.0001
 1674,-0.00018387,-0.00014907,-0.00004370,0.00012164,0.00003448,0.00010
 521,0.00007700,0.00022025,-0.00045684,-0.00063291,-0.00005978,0.000125
 92,-0.00245808,-0.00144103,-0.00001151,0.00001781,0.00002060,0.0000605
 7,0.00001247,-0.00001847,0.00001184,-0.00001133,0.00000902,-0.00006166
 ,0.00062046,-0.00005082,0.00001287,0.00004142,0.00000582,-0.00002086,-
 0.00000197,-0.00000363,0.01743852,-0.00329371,0.00056121,-0.06446796,0
 .00190292,-0.06399076,0.01356192,0.00056059,0.00329320,0.06491424,0.00
 591885,0.06689506,-0.00101017,0.00096293,-0.00008909,0.00119090,0.0003
 8949,0.00025062,-0.00007714,-0.00094585,-0.00060463,-0.00084873,0.0008
 1908,-0.00037438,0.00054465,-0.00074458,-0.00026360,0.00320350,-0.0006
 9336,0.00130134,-0.00000415,-0.00008428,0.00006163,0.00000678,-0.00003
 288,0.00003501,-0.00001352,0.00001952,-0.00000028,-0.00182168,-0.00056
 446,0.00109252,-0.00006675,-0.00014140,0.00011196,0.00005138,0.0000230
 1,-0.00002243,-0.00008621,0.00631939,0.01545080,-0.05543393,0.00004237
 ,-0.02992163,0.00206595,-0.00294256,0.01601484,-0.00248404,0.00207398,
 -0.03367642,0.05517660,0.00067516,-0.00116436,0.00012563,-0.00072110,-
 0.00012985,-0.00000738,0.00052718,0.00022552,0.00026468,0.00004095,-0.
 00035855,0.00002571,0.00048420,0.00086368,0.00115137,-0.00415179,0.001
 46639,-0.00101581,-0.00001943,0.00011871,-0.00012347,0.00001562,0.0000
 1190,-0.00006179,0.00001097,0.00001901,0.00001878,0.00030578,0.0001833
 7,-0.00023438,-0.00028125,0.00008577,-0.00008596,0.00020145,-0.0000469
 0,0.00003447,0.00138060,-0.00950773,-0.03445884,0.00098546,-0.05023786
 ,0.01502191,0.00313116,-0.00088482,0.02845606,-0.00078462,0.00050758,-
 0.00042387,-0.00386880,0.06008092,0.00095412,-0.00082803,-0.00021408,-
 0.00052979,0.00014459,0.00003776,0.00074833,-0.00020618,-0.00005279,-0
 .00068459,0.00075600,0.00013958,0.00097375,-0.00061058,0.00008648,-0.0
 0462655,0.00056817,-0.00056087,-0.00003888,0.00015384,-0.00002570,0.00
 002387,-0.00000848,-0.00001816,0.00004358,0.00000752,0.00001870,0.0001
 6527,0.00088754,0.00043742,-0.00053794,0.00012392,0.00002994,0.0003182
 3,-0.00006049,0.00002876,0.00362610,-0.01281811,-0.00885105,-0.0287946
 6,0.01340758,-0.29545509,-0.00343588,0.00161438,-0.01345554,0.00022233
 ,0.00147056,-0.00612873,0.02970623,-0.00542751,0.32659131,0.00041626,-
 0.00154650,-0.00027751,-0.00203727,-0.00114779,-0.00132981,0.00209793,
 0.00000594,0.00046696,-0.00159341,-0.00083404,-0.00122062,-0.00085310,
 0.00483165,0.00219570,-0.03539499,-0.02224644,-0.02253554,-0.00311603,
 -0.00039537,-0.00104492,0.00015245,-0.00004658,-0.00003404,-0.00030791
 ,0.00009600,0.00006811,0.00000923,-0.00020170,-0.00004382,-0.00144003,
 0.00019814,-0.00013700,0.00084904,-0.00015837,0.00008976,-0.12901566,-
 0.03488332,-0.03947071,0.00855658,0.00374869,0.00500444,-0.00087309,0.
 00167167,0.00090528,-0.00018449,0.00310643,0.00178896,-0.00138227,0.00
 265559,0.00197169,0.58165719,0.00690876,-0.00110060,0.00257470,-0.0026
 0221,-0.00048284,-0.00124367,0.00206919,0.00083458,0.00093404,0.000328
 24,0.00021447,-0.00063845,0.00426812,0.00065799,-0.00040604,-0.0051037
 2,0.00815371,0.00398158,0.00177617,-0.00049054,-0.00005262,0.00020124,
 -0.00008481,-0.00011520,0.00027212,-0.00007634,0.00023057,-0.00015076,
 -0.00009839,0.00012586,-0.00142702,0.00015005,-0.00003378,0.00093963,-
 0.00018801,0.00007566,-0.02900085,-0.13686805,-0.05838868,-0.01247968,
 -0.02089548,-0.01467585,0.00073119,-0.00240344,-0.00153083,-0.00261392
 ,-0.00006994,-0.00106165,-0.00072831,-0.00003513,0.00175171,-0.0616661
 8,0.54285894,0.00511135,0.00057727,-0.00100482,-0.00225774,-0.00090003
 ,-0.00059945,0.00178025,0.00045011,0.00084008,-0.00047812,-0.00091380,
 0.00064491,0.00184032,-0.00027546,0.00312888,-0.01156996,-0.00005192,-
 0.00276599,0.00033831,-0.00056359,-0.00002938,0.00012395,-0.00017363,0
 .00008903,0.00018070,0.00018872,-0.00017433,-0.00001086,0.00011428,-0.
 00028337,-0.00117073,0.00034931,-0.00037874,0.00078845,-0.00018324,0.0
 0011043,-0.03576154,-0.05979833,-0.10249203,-0.00532664,-0.01081218,-0
 .01067226,-0.00070303,0.00353161,-0.00004051,-0.00185968,0.00028634,0.
 00037277,0.00082080,-0.00230340,-0.00191305,-0.03220650,-0.02010369,0.
 53111667,0.00052590,0.00065707,0.00051817,-0.00083556,0.00018299,-0.00
 078256,-0.00001753,0.00096663,0.00063785,0.00122737,-0.00058176,-0.000
 40095,-0.00136520,-0.00018700,-0.00101977,0.00421728,-0.00169265,0.001
 02357,-0.00182081,-0.00041952,0.00123348,-0.00002124,0.00000222,-0.000
 01393,0.00000191,-0.00002999,0.00004842,0.00001320,-0.00003202,0.00014
 023,0.00005000,-0.00005371,0.00019470,-0.00001814,0.00001677,-0.000043
 71,-0.00444371,-0.02303494,0.00027826,-0.00195686,-0.00060341,0.001573
 63,0.00056741,-0.00071866,-0.00022616,0.00044215,-0.00000119,-0.000195
 57,-0.00005153,0.00010112,0.00008534,-0.05156552,0.00594003,-0.0006812
 9,0.05319745,-0.00114479,0.00048090,-0.00038296,0.00084984,0.00020822,
 0.00051756,-0.00089848,0.00000163,-0.00012275,0.00058398,0.00003008,0.
 00004466,-0.00112880,-0.00038362,-0.00078202,0.00525029,-0.00111088,0.
 00058545,0.00020270,0.00073471,0.00052575,-0.00003568,0.00003512,0.000
 01061,-0.00003324,-0.00002979,0.00000865,0.00006365,0.00000255,0.00017
 552,0.00061728,-0.00003946,0.00004232,-0.00037484,0.00006657,-0.000037
 35,-0.00801336,-0.02163952,-0.00532957,-0.00255222,-0.00129887,0.00258
 901,0.00015110,-0.00130221,-0.00065657,-0.00015697,0.00002550,0.000021
 85,-0.00014742,-0.00012004,-0.00016537,0.00437562,-0.25359936,0.096148
 40,0.00099529,0.28664752,0.00014164,0.00127805,0.00049081,-0.00030538,
 -0.00023172,-0.00044002,-0.00012505,0.00027953,0.00011122,0.00029685,-
 0.00009741,-0.00015900,-0.00021373,-0.00004337,-0.00064081,0.00170794,
 -0.00039092,0.00100146,-0.00008866,-0.00033340,-0.00011222,0.00001207,
 0.00001376,0.00001025,-0.00000866,-0.00003672,0.00002833,-0.00000117,-
 0.00007364,0.00007305,0.00004565,-0.00007460,0.00003872,-0.00006399,0.
 00002035,-0.00001535,-0.00312373,-0.02520127,0.00764051,-0.00173586,-0
 .00120949,-0.00007151,0.00016820,-0.00083306,-0.00038320,0.00010665,0.
 00003395,-0.00005717,-0.00006855,-0.00006932,-0.00002491,-0.00086011,0
 .09764529,-0.09595085,0.00431951,-0.09930273,0.10198523,0.00026372,-0.
 00007955,-0.00009450,0.00023016,0.00004444,0.00004807,-0.00016724,-0.0
 0005804,-0.00006869,-0.00004790,-0.00030336,-0.00020337,-0.00076497,0.
 00061435,0.00011780,0.00088119,-0.00295683,-0.00169752,0.00004908,-0.0
 0020547,-0.00001765,-0.00003582,0.00001929,0.00000068,-0.00010370,0.00
 000927,-0.00000896,0.00001002,-0.00011630,-0.00007444,0.00019980,-0.00
 004712,0.00002266,-0.00015733,0.00003095,-0.00001801,-0.02352631,0.006
 47083,-0.00108486,-0.00025879,0.00279553,0.00157477,0.00039198,0.00000
 151,0.00001255,0.00187311,-0.00051264,-0.00004913,0.00046128,-0.000107
 64,0.00013964,-0.28599300,0.08751259,0.00019803,0.00087588,-0.00041427
 ,0.00089940,0.31512362,0.00044239,-0.00071960,-0.00064083,-0.00012684,
 0.00031597,0.00007802,0.00010735,0.00011885,0.00012177,0.00010539,-0.0
 0032931,-0.00018164,-0.00127835,0.00055088,-0.00020174,-0.00104724,-0.
 00331904,-0.00242370,0.00029194,0.00043285,0.00061925,-0.00001999,0.00
 000344,-0.00001108,-0.00008187,0.00001143,0.00001385,0.00002284,0.0000
 3371,0.00001909,-0.00000894,0.00004440,0.00004118,0.00003269,-0.000012
 74,-0.00000202,-0.02585212,0.00354569,-0.00291901,-0.00292510,0.000050
 83,-0.00105645,-0.00016229,0.00002698,0.00003226,-0.00030700,-0.000804
 25,-0.00102458,0.00010489,-0.00003625,0.00000157,0.09882216,-0.0856929
 0,0.00058795,0.02921589,-0.00956931,-0.00153421,-0.09743633,0.09526344
 ,0.00023683,-0.00076407,0.00002026,-0.00006119,0.00011841,0.00020705,0
 .00003652,0.00008285,0.00002874,0.00005698,-0.00027829,-0.00016854,-0.
 00108808,0.00024515,0.00029300,-0.00048316,-0.00287326,-0.00184948,0.0
 0029917,0.00050150,-0.00004088,-0.00002435,-0.00000178,0.00000653,-0.0
 0006706,0.00003533,-0.00003391,0.00001406,-0.00001367,0.00000676,0.000
 04697,0.00003211,0.00000807,-0.00001690,-0.00000242,-0.00000300,-0.021
 69034,0.00470299,-0.00355112,-0.00207382,0.00029071,0.00032643,0.00029
 742,-0.00005598,-0.00001094,0.00008425,-0.00107235,0.00002456,-0.00011
 294,0.00007813,-0.00001373,0.00740901,-0.00208015,-0.04966758,-0.01411
 691,0.00604581,0.00058662,0.00085548,0.00722724,0.05272146,0.00075411,
 0.00087321,0.00078816,-0.00128989,-0.00060820,0.00006552,0.00012608,0.
 00097863,0.00065844,0.00100553,-0.00086035,0.00001578,-0.00131265,-0.0
 0068470,-0.00008464,0.00379152,-0.00034060,-0.00061308,-0.00115926,0.0
 0093880,-0.00149328,-0.00001143,-0.00000879,0.00000093,0.00002906,0.00
 002931,-0.00004648,0.00004767,0.00007819,-0.00009083,0.00001232,0.0001
 4429,-0.00014592,0.00002245,-0.00003717,0.00003390,0.00314960,-0.00703
 685,-0.02429276,-0.00126826,0.00086066,-0.00151737,-0.00002329,0.00014
 201,0.00003317,0.00037062,-0.00027486,0.00022953,0.00057909,-0.0005806
 4,-0.00033020,-0.07998191,0.00482535,0.08084394,0.00097752,0.00181032,
 -0.00110301,-0.00930479,0.00010051,0.03039806,0.08348592,-0.00065478,0
 .00076516,0.00082291,0.00029506,-0.00011760,-0.00003909,-0.00050487,0.
 00004636,-0.00009065,0.00022406,-0.00006462,0.00014110,-0.00056603,-0.
 00059985,-0.00002199,0.00313147,-0.00001936,0.00018991,0.00029135,-0.0
 0012874,0.00027421,-0.00000116,0.00002665,0.00001730,-0.00000692,0.000
 00350,-0.00004830,0.00007069,0.00006801,-0.00008290,0.00029976,-0.0000
 8340,0.00003104,-0.00021797,0.00004621,-0.00002461,0.00191904,-0.00710
 819,-0.02670606,-0.00151400,0.00046400,-0.00231833,-0.00011520,-0.0001
 3513,-0.00011083,-0.00007063,0.00003274,0.00001395,0.00013924,-0.00104
 136,-0.00076261,0.00361440,-0.05078392,-0.00615472,-0.01072316,0.00086
 025,0.03016092,0.00473881,0.00008494,-0.01221826,-0.00034915,0.0576843
 4,-0.00096065,-0.00004714,-0.00001428,0.00058863,0.00033848,0.00033891
 ,-0.00071237,0.00029742,-0.00007771,0.00075224,-0.00024746,0.00015886,
 -0.00141791,-0.00056933,-0.00047959,0.00534880,-0.00128992,0.00034576,
 -0.00018789,0.00113847,0.00009259,-0.00004427,0.00002134,0.00000887,-0
 .00001460,0.00000638,-0.00003217,0.00010698,0.00014513,-0.00002708,0.0
 0053002,-0.00004706,0.00012093,-0.00031096,0.00005283,-0.00003596,-0.0
 0561269,-0.01248554,-0.01448491,-0.00096475,0.00249748,-0.00251611,-0.
 00013541,-0.00009152,-0.00003883,-0.00003991,-0.00000958,0.00000548,0.
 00028818,-0.00096502,-0.00065625,0.07926069,-0.00698879,-0.27033041,0.
 00742769,0.00006375,-0.01411115,-0.00055196,0.00125307,0.00110971,-0.0
 8334986,0.01692699,0.30062335||0.00000621,-0.00001603,-0.00000182,-0.0
 0001032,-0.00000240,-0.00000299,-0.00000028,0.00000648,0.00000351,0.00
 000826,-0.00000446,0.00000168,-0.00001160,-0.00000364,-0.00000257,0.00
 000110,0.00002088,-0.00000215,-0.00000146,0.00000452,-0.00000125,0.000
 00296,0.00000140,0.00000069,-0.00000131,0.,-0.00000093,0.00000060,0.00
 000106,-0.00000040,0.00000470,-0.00000072,-0.00000034,-0.00000587,0.00
 000037,0.00000040,-0.00001993,-0.00000589,0.00001549,0.00001313,-0.000
 01199,-0.00001349,-0.00000038,0.00000636,0.00000204,0.00000146,0.00000
 090,0.00000453,0.00000126,0.00000131,0.00000155,0.00000784,0.00001029,
 -0.00000289,0.00000181,-0.00000187,0.00000210,0.00000217,-0.00000296,-
 0.00000101,-0.00000036,-0.00000360,-0.00000214|||@


      TO SUSPECT YOUR OWN MORTALITY IS TO KNOW THE BEGINNING OF TERROR.
      TO LEARN IRREFUTABLY THAT YOU ARE MORTAL IS TO KNOW THE END
      OF TERROR.

                                                  -- JESSICA
                                                     CHILDREN OF DUNE
                                                     BY FRANK HERBERT
 Job cpu time:  0 days  0 hours  4 minutes 32.0 seconds.
 File lengths (MBytes):  RWF=     50 Int=      0 D2E=      0 Chk=      2 Scr=      1
 Normal termination of Gaussian 09 at Thu Jan 16 02:35:58 2025.
