 Entering Link 1 = C:\G09W\l1.exe PID=     17312.
  
 Copyright (c) 1988,1990,1992,1993,1995,1998,2003,2009, Gaussian, Inc.
                  All Rights Reserved.
  
 This is part of the Gaussian(R) 09 program.  It is based on
 the Gaussian(R) 03 system (copyright 2003, Gaussian, Inc.),
 the Gaussian(R) 98 system (copyright 1998, Gaussian, Inc.),
 the Gaussian(R) 94 system (copyright 1995, Gaussian, Inc.),
 the Gaussian 92(TM) system (copyright 1992, Gaussian, Inc.),
 the Gaussian 90(TM) system (copyright 1990, Gaussian, Inc.),
 the Gaussian 88(TM) system (copyright 1988, Gaussian, Inc.),
 the Gaussian 86(TM) system (copyright 1986, Carnegie Mellon
 University), and the Gaussian 82(TM) system (copyright 1983,
 Carnegie Mellon University). Gaussian is a federally registered
 trademark of Gaussian, Inc.
  
 This software contains proprietary and confidential information,
 including trade secrets, belonging to Gaussian, Inc.
  
 This software is provided under written license and may be
 used, copied, transmitted, or stored only in accord with that
 written license.
  
 The following legend is applicable only to US Government
 contracts under FAR:
  
                    RESTRICTED RIGHTS LEGEND
  
 Use, reproduction and disclosure by the US Government is
 subject to restrictions as set forth in subparagraphs (a)
 and (c) of the Commercial Computer Software - Restricted
 Rights clause in FAR 52.227-19.
  
 Gaussian, Inc.
 340 Quinnipiac St., Bldg. 40, Wallingford CT 06492
  
  
 ---------------------------------------------------------------
 Warning -- This program may not be used in any manner that
 competes with the business of Gaussian, Inc. or will provide
 assistance to any competitor of Gaussian, Inc.  The licensee
 of this program is prohibited from giving any competitor of
 Gaussian, Inc. access to this program.  By using this program,
 the user acknowledges that Gaussian, Inc. is engaged in the
 business of creating and licensing software in the field of
 computational chemistry and represents and warrants to the
 licensee that it is not a competitor of Gaussian, Inc. and that
 it will not use this program in any manner prohibited above.
 ---------------------------------------------------------------
  

 Cite this work as:
 Gaussian 09, Revision A.02,
 M. J. Frisch, G. W. Trucks, H. B. Schlegel, G. E. Scuseria, 
 M. A. Robb, J. R. Cheeseman, G. Scalmani, V. Barone, B. Mennucci, 
 G. A. Petersson, H. Nakatsuji, M. Caricato, X. Li, H. P. Hratchian, 
 A. F. Izmaylov, J. Bloino, G. Zheng, J. L. Sonnenberg, M. Hada, 
 M. Ehara, K. Toyota, R. Fukuda, J. Hasegawa, M. Ishida, T. Nakajima, 
 Y. Honda, O. Kitao, H. Nakai, T. Vreven, J. A. Montgomery, Jr., 
 J. E. Peralta, F. Ogliaro, M. Bearpark, J. J. Heyd, E. Brothers, 
 K. N. Kudin, V. N. Staroverov, R. Kobayashi, J. Normand, 
 K. Raghavachari, A. Rendell, J. C. Burant, S. S. Iyengar, J. Tomasi, 
 M. Cossi, N. Rega, J. M. Millam, M. Klene, J. E. Knox, J. B. Cross, 
 V. Bakken, C. Adamo, J. Jaramillo, R. Gomperts, R. E. Stratmann, 
 O. Yazyev, A. J. Austin, R. Cammi, C. Pomelli, J. W. Ochterski, 
 R. L. Martin, K. Morokuma, V. G. Zakrzewski, G. A. Voth, 
 P. Salvador, J. J. Dannenberg, S. Dapprich, A. D. Daniels, 
 O. Farkas, J. B. Foresman, J. V. Ortiz, J. Cioslowski, 
 and D. J. Fox, Gaussian, Inc., Wallingford CT, 2009.
 
 ******************************************
 Gaussian 09:  IA32W-G09RevA.02 11-Jun-2009
                15-Jan-2025 
 ******************************************
 %chk=C:\G09W\Final\optTD.chk
 --------------------------------------
 # opt td b3lyp/6-31g geom=connectivity
 --------------------------------------
 1/14=-1,18=20,19=15,26=3,38=1,57=2/1,3;
 2/9=110,12=2,17=6,18=5,40=1/2;
 3/5=1,6=6,11=2,16=1,25=1,30=1,71=1,74=-5/1,2,8,3;
 4//1;
 5/5=2,38=5/2;
 8/6=1,10=2/1;
 9/15=2,42=1/14;
 10/5=4/2;
 6/7=2,8=2,9=2,10=2/1;
 7/12=6,13=5/1,2,3,16;
 1/14=-1,18=20,19=15/3(2);
 2/9=110/2;
 99//99;
 2/9=110/2;
 3/5=1,6=6,11=2,16=1,25=1,30=1,71=1,74=-5/1,2,8,3;
 4/5=5,16=3/1;
 5/5=2,38=5/2;
 8/6=1,10=2/1;
 9/15=2,42=1,49=4/14;
 10/5=4/2;
 7/12=6,13=5/1,2,3,16;
 1/14=-1,18=20,19=15/3(-8);
 2/9=110/2;
 6/7=2,8=2,9=2,10=2/1;
 99//99;
 -------------------
 Title Card Required
 -------------------
 Symbolic Z-matrix:
 Charge =  0 Multiplicity = 1
 C                    -2.35124  -0.74827   0.08065 
 C                    -0.95695  -0.86462   0.16026 
 C                    -0.16477   0.28313   0.29826 
 C                    -0.76689   1.54724   0.35666 
 C                    -2.16118   1.66359   0.27705 
 C                    -2.95336   0.51583   0.13905 
 H                    -2.95608  -1.62461  -0.02472 
 H                    -0.49722  -1.8298    0.11567 
 H                    -0.16205   2.42357   0.46202 
 H                    -2.62092   2.62876   0.32164 
 C                     1.36741   0.15527   0.38573 
 N                     2.5082    0.06008   0.45086 
 N                    -4.4159    0.63788   0.05555 
 C                    -4.8532    1.81848   0.8144 
 H                    -4.39808   2.69532   0.40342 
 H                    -5.91778   1.90732   0.75362 
 H                    -4.56206   1.71214   1.83852 
 C                    -4.81588   0.78397  -1.35143 
 H                    -4.49757  -0.07537  -1.90379 
 H                    -5.88045   0.87281  -1.41221 
 H                    -4.36076   1.66082  -1.76241 
 

 GradGradGradGradGradGradGradGradGradGradGradGradGradGradGradGradGradGrad
 Berny optimization.
 Initialization pass.
                           ----------------------------
                           !    Initial Parameters    !
                           ! (Angstroms and Degrees)  !
 --------------------------                            --------------------------
 ! Name  Definition              Value          Derivative Info.                !
 --------------------------------------------------------------------------------
 ! R1    R(1,2)                  1.4014         estimate D2E/DX2                !
 ! R2    R(1,6)                  1.4014         estimate D2E/DX2                !
 ! R3    R(1,7)                  1.07           estimate D2E/DX2                !
 ! R4    R(2,3)                  1.4014         estimate D2E/DX2                !
 ! R5    R(2,8)                  1.07           estimate D2E/DX2                !
 ! R6    R(3,4)                  1.4014         estimate D2E/DX2                !
 ! R7    R(3,11)                 1.54           estimate D2E/DX2                !
 ! R8    R(4,5)                  1.4014         estimate D2E/DX2                !
 ! R9    R(4,9)                  1.07           estimate D2E/DX2                !
 ! R10   R(5,6)                  1.4014         estimate D2E/DX2                !
 ! R11   R(5,10)                 1.07           estimate D2E/DX2                !
 ! R12   R(6,13)                 1.47           estimate D2E/DX2                !
 ! R13   R(11,12)                1.1466         estimate D2E/DX2                !
 ! R14   R(13,14)                1.47           estimate D2E/DX2                !
 ! R15   R(13,18)                1.47           estimate D2E/DX2                !
 ! R16   R(14,15)                1.07           estimate D2E/DX2                !
 ! R17   R(14,16)                1.07           estimate D2E/DX2                !
 ! R18   R(14,17)                1.07           estimate D2E/DX2                !
 ! R19   R(18,19)                1.07           estimate D2E/DX2                !
 ! R20   R(18,20)                1.07           estimate D2E/DX2                !
 ! R21   R(18,21)                1.07           estimate D2E/DX2                !
 ! A1    A(2,1,6)              120.0            estimate D2E/DX2                !
 ! A2    A(2,1,7)              120.0            estimate D2E/DX2                !
 ! A3    A(6,1,7)              120.0            estimate D2E/DX2                !
 ! A4    A(1,2,3)              120.0            estimate D2E/DX2                !
 ! A5    A(1,2,8)              120.0            estimate D2E/DX2                !
 ! A6    A(3,2,8)              120.0            estimate D2E/DX2                !
 ! A7    A(2,3,4)              120.0            estimate D2E/DX2                !
 ! A8    A(2,3,11)             120.0            estimate D2E/DX2                !
 ! A9    A(4,3,11)             120.0            estimate D2E/DX2                !
 ! A10   A(3,4,5)              120.0            estimate D2E/DX2                !
 ! A11   A(3,4,9)              120.0            estimate D2E/DX2                !
 ! A12   A(5,4,9)              120.0            estimate D2E/DX2                !
 ! A13   A(4,5,6)              120.0            estimate D2E/DX2                !
 ! A14   A(4,5,10)             120.0            estimate D2E/DX2                !
 ! A15   A(6,5,10)             120.0            estimate D2E/DX2                !
 ! A16   A(1,6,5)              120.0            estimate D2E/DX2                !
 ! A17   A(1,6,13)             120.0            estimate D2E/DX2                !
 ! A18   A(5,6,13)             120.0            estimate D2E/DX2                !
 ! A19   A(6,13,14)            109.4712         estimate D2E/DX2                !
 ! A20   A(6,13,18)            109.4712         estimate D2E/DX2                !
 ! A21   A(14,13,18)           109.4712         estimate D2E/DX2                !
 ! A22   A(13,14,15)           109.4712         estimate D2E/DX2                !
 ! A23   A(13,14,16)           109.4712         estimate D2E/DX2                !
 ! A24   A(13,14,17)           109.4712         estimate D2E/DX2                !
 ! A25   A(15,14,16)           109.4712         estimate D2E/DX2                !
 ! A26   A(15,14,17)           109.4712         estimate D2E/DX2                !
 ! A27   A(16,14,17)           109.4712         estimate D2E/DX2                !
 ! A28   A(13,18,19)           109.4712         estimate D2E/DX2                !
 ! A29   A(13,18,20)           109.4712         estimate D2E/DX2                !
 ! A30   A(13,18,21)           109.4712         estimate D2E/DX2                !
 ! A31   A(19,18,20)           109.4712         estimate D2E/DX2                !
 ! A32   A(19,18,21)           109.4712         estimate D2E/DX2                !
 ! A33   A(20,18,21)           109.4712         estimate D2E/DX2                !
 ! A34   L(3,11,12,4,-1)       179.9999         estimate D2E/DX2                !
 ! A35   L(3,11,12,4,-2)       180.0            estimate D2E/DX2                !
 ! D1    D(6,1,2,3)             -0.0001         estimate D2E/DX2                !
 ! D2    D(6,1,2,8)            179.9999         estimate D2E/DX2                !
 ! D3    D(7,1,2,3)            179.9999         estimate D2E/DX2                !
 ! D4    D(7,1,2,8)             -0.0001         estimate D2E/DX2                !
 ! D5    D(2,1,6,5)              0.0            estimate D2E/DX2                !
 ! D6    D(2,1,6,13)          -180.0            estimate D2E/DX2                !
 ! D7    D(7,1,6,5)           -179.9999         estimate D2E/DX2                !
 ! D8    D(7,1,6,13)             0.0001         estimate D2E/DX2                !
 ! D9    D(1,2,3,4)              0.0001         estimate D2E/DX2                !
 ! D10   D(1,2,3,11)          -179.9998         estimate D2E/DX2                !
 ! D11   D(8,2,3,4)           -179.9999         estimate D2E/DX2                !
 ! D12   D(8,2,3,11)             0.0002         estimate D2E/DX2                !
 ! D13   D(2,3,4,5)             -0.0001         estimate D2E/DX2                !
 ! D14   D(2,3,4,9)            179.9999         estimate D2E/DX2                !
 ! D15   D(11,3,4,5)           179.9998         estimate D2E/DX2                !
 ! D16   D(11,3,4,9)            -0.0001         estimate D2E/DX2                !
 ! D17   D(3,4,5,6)              0.0001         estimate D2E/DX2                !
 ! D18   D(3,4,5,10)           179.9999         estimate D2E/DX2                !
 ! D19   D(9,4,5,6)           -180.0            estimate D2E/DX2                !
 ! D20   D(9,4,5,10)            -0.0001         estimate D2E/DX2                !
 ! D21   D(4,5,6,1)              0.0            estimate D2E/DX2                !
 ! D22   D(4,5,6,13)           180.0            estimate D2E/DX2                !
 ! D23   D(10,5,6,1)          -179.9998         estimate D2E/DX2                !
 ! D24   D(10,5,6,13)            0.0002         estimate D2E/DX2                !
 ! D25   D(1,6,13,14)          150.0            estimate D2E/DX2                !
 ! D26   D(1,6,13,18)          -90.0            estimate D2E/DX2                !
 ! D27   D(5,6,13,14)          -30.0            estimate D2E/DX2                !
 ! D28   D(5,6,13,18)           90.0            estimate D2E/DX2                !
 ! D29   D(6,13,14,15)          60.0            estimate D2E/DX2                !
 ! D30   D(6,13,14,16)         180.0            estimate D2E/DX2                !
 ! D31   D(6,13,14,17)         -60.0            estimate D2E/DX2                !
 ! D32   D(18,13,14,15)        -60.0            estimate D2E/DX2                !
 ! D33   D(18,13,14,16)         60.0            estimate D2E/DX2                !
 ! D34   D(18,13,14,17)        180.0            estimate D2E/DX2                !
 ! D35   D(6,13,18,19)          60.0            estimate D2E/DX2                !
 ! D36   D(6,13,18,20)         180.0            estimate D2E/DX2                !
 ! D37   D(6,13,18,21)         -60.0            estimate D2E/DX2                !
 ! D38   D(14,13,18,19)        180.0            estimate D2E/DX2                !
 ! D39   D(14,13,18,20)        -60.0            estimate D2E/DX2                !
 ! D40   D(14,13,18,21)         60.0            estimate D2E/DX2                !
 --------------------------------------------------------------------------------
 Trust Radius=3.00D-01 FncErr=1.00D-07 GrdErr=1.00D-06
 Number of steps in this run= 106 maximum allowed number of steps= 126.
 GradGradGradGradGradGradGradGradGradGradGradGradGradGradGradGradGradGrad

                          Input orientation:                          
 ---------------------------------------------------------------------
 Center     Atomic      Atomic             Coordinates (Angstroms)
 Number     Number       Type             X           Y           Z
 ---------------------------------------------------------------------
      1          6           0       -2.351237   -0.748272    0.080649
      2          6           0       -0.956946   -0.864623    0.160255
      3          6           0       -0.164774    0.283132    0.298257
      4          6           0       -0.766893    1.547238    0.356655
      5          6           0       -2.161184    1.663589    0.277050
      6          6           0       -2.953356    0.515835    0.139047
      7          1           0       -2.956078   -1.624608   -0.024720
      8          1           0       -0.497215   -1.829796    0.115668
      9          1           0       -0.162052    2.423574    0.462024
     10          1           0       -2.620916    2.628762    0.321640
     11          6           0        1.367414    0.155273    0.385732
     12          7           0        2.508198    0.060078    0.450861
     13          7           0       -4.415899    0.637882    0.055545
     14          6           0       -4.853204    1.818478    0.814398
     15          1           0       -4.398083    2.695324    0.403416
     16          1           0       -5.917776    1.907315    0.753618
     17          1           0       -4.562063    1.712141    1.838522
     18          6           0       -4.815878    0.783971   -1.351428
     19          1           0       -4.497567   -0.075374   -1.903790
     20          1           0       -5.880450    0.872808   -1.412208
     21          1           0       -4.360757    1.660817   -1.762410
 ---------------------------------------------------------------------
                    Distance matrix (angstroms):
                    1          2          3          4          5
     1  C    0.000000
     2  C    1.401400   0.000000
     3  C    2.427296   1.401400   0.000000
     4  C    2.802800   2.427296   1.401400   0.000000
     5  C    2.427296   2.802800   2.427296   1.401400   0.000000
     6  C    1.401400   2.427296   2.802800   2.427296   1.401400
     7  H    1.070000   2.146700   3.396345   3.872800   3.396345
     8  H    2.146700   1.070000   2.146700   3.396345   3.872800
     9  H    3.872800   3.396345   2.146700   1.070000   2.146700
    10  H    3.396345   3.872800   3.396345   2.146700   1.070000
    11  C    3.838989   2.548270   1.540000   2.548270   3.838989
    12  N    4.940100   3.598159   2.686600   3.598158   4.940100
    13  N    2.486942   3.772644   4.272800   3.772644   2.486942
    14  C    3.658747   4.775747   4.960349   4.120805   2.749492
    15  H    4.018968   4.957194   4.873462   3.808652   2.466609
    16  H    4.497246   5.713629   5.995194   5.178690   3.794536
    17  H    3.745864   4.738476   4.873462   4.077553   2.864397
    18  C    3.236212   4.460314   4.960349   4.460314   3.236212
    19  H    2.999587   4.173631   4.873462   4.654075   3.638508
    20  H    4.160753   5.452724   5.995194   5.452724   4.160753
    21  H    3.638508   4.654075   4.873462   4.173631   2.999587
                    6          7          8          9         10
     6  C    0.000000
     7  H    2.146700   0.000000
     8  H    3.396345   2.471400   0.000000
     9  H    3.396345   4.942800   4.280590   0.000000
    10  H    2.146700   4.280590   4.942800   2.471400   0.000000
    11  C    4.342800   4.693509   2.736837   2.736837   4.693509
    12  N    5.489400   5.737826   3.566018   3.566016   5.737825
    13  N    1.470000   2.693766   4.631321   4.631321   2.693767
    14  C    2.400500   4.019707   5.724750   4.743123   2.425383
    15  H    2.628174   4.574329   5.981328   4.245143   1.780293
    16  H    3.331921   4.674606   6.614791   5.786182   3.402408
    17  H    2.628174   4.145449   5.660082   4.664866   2.628531
    18  C    2.400500   3.319678   5.256900   5.256900   3.319679
    19  H    2.628174   2.882224   4.812382   5.535206   3.973250
    20  H    3.331921   4.088295   6.214313   6.214313   4.088297
    21  H    2.628174   3.973248   5.535207   4.812382   2.882227
                   11         12         13         14         15
    11  C    0.000000
    12  N    1.146600   0.000000
    13  N    5.812800   6.959400   0.000000
    14  C    6.453378   7.577227   1.470000   0.000000
    15  H    6.300248   7.392123   2.086720   1.070000   0.000000
    16  H    7.501932   8.631395   2.086720   1.070000   1.747303
    17  H    6.300249   7.392124   2.086720   1.070000   1.747303
    18  C    6.453377   7.577226   1.470000   2.400500   2.628174
    19  H    6.300247   7.392122   2.086720   3.331921   3.606919
    20  H    7.501931   8.631394   2.086720   2.628174   2.969085
    21  H    6.300247   7.392122   2.086720   2.628174   2.400500
                   16         17         18         19         20
    16  H    0.000000
    17  H    1.747303   0.000000
    18  C    2.628174   3.331921   0.000000
    19  H    3.606919   4.147803   1.070000   0.000000
    20  H    2.400500   3.606919   1.070000   1.747303   0.000000
    21  H    2.969085   3.606919   1.070000   1.747303   1.747303
                   21
    21  H    0.000000
 Stoichiometry    C9H10N2
 Framework group  C1[X(C9H10N2)]
 Deg. of freedom    57
 Full point group                 C1      NOp   1
 Largest Abelian subgroup         C1      NOp   1
 Largest concise Abelian subgroup C1      NOp   1
                         Standard orientation:                         
 ---------------------------------------------------------------------
 Center     Atomic      Atomic             Coordinates (Angstroms)
 Number     Number       Type             X           Y           Z
 ---------------------------------------------------------------------
      1          6           0       -0.131413    1.316058   -0.424302
      2          6           0        1.263703    1.215701   -0.337699
      3          6           0        1.858836   -0.008676   -0.005071
      4          6           0        1.058852   -1.132696    0.240951
      5          6           0       -0.336264   -1.032339    0.154347
      6          6           0       -0.931397    0.192038   -0.178280
      7          1           0       -0.585811    2.250897   -0.678269
      8          1           0        1.874509    2.073915   -0.525543
      9          1           0        1.513249   -2.067535    0.494918
     10          1           0       -0.947070   -1.890554    0.342188
     11          6           0        3.391931   -0.118957    0.090101
     12          7           0        4.533390   -0.201068    0.160962
     13          7           0       -2.394806    0.297307   -0.269123
     14          6           0       -2.954302   -0.996910   -0.684896
     15          1           0       -2.694513   -1.745367    0.034285
     16          1           0       -4.019504   -0.920285   -0.751020
     17          1           0       -2.556140   -1.267126   -1.640589
     18          6           0       -2.941813    0.668539    1.043839
     19          1           0       -2.534561    1.610588    1.346476
     20          1           0       -4.007016    0.745163    0.977715
     21          1           0       -2.682024   -0.079919    1.763020
 ---------------------------------------------------------------------
 Rotational constants (GHZ):      3.4202353      0.5605821      0.5164084
 Standard basis: 6-31G (6D, 7F)
 There are   119 symmetry adapted basis functions of A   symmetry.
 Integral buffers will be    262144 words long.
 Raffenetti 2 integral format.
 Two-electron integral symmetry is turned on.
   119 basis functions,   282 primitive gaussians,   119 cartesian basis functions
    39 alpha electrons       39 beta electrons
       nuclear repulsion energy       545.8402255254 Hartrees.
 NAtoms=   21 NActive=   21 NUniq=   21 SFac= 7.50D-01 NAtFMM=   80 NAOKFM=F Big=F
 One-electron integrals computed using PRISM.
 NBasis=   119 RedAO= T  NBF=   119
 NBsUse=   119 1.00D-06 NBFU=   119
 Harris functional with IExCor=  402 diagonalized for initial guess.
 ExpMin= 1.61D-01 ExpMax= 4.17D+03 ExpMxC= 6.27D+02 IAcc=1 IRadAn=         1 AccDes= 0.00D+00
 HarFok:  IExCor=  402 AccDes= 0.00D+00 IRadAn=         1 IDoV= 1
 ScaDFX=  1.000000  1.000000  1.000000  1.000000
 FoFCou: FMM=F IPFlag=           0 FMFlag=      100000 FMFlg1=           0
         NFxFlg=           0 DoJE=T BraDBF=F KetDBF=T FulRan=T
         Omega=  0.000000  0.000000  1.000000  0.000000  0.000000 ICntrl=     500 IOpCl=  0
         NMat0=    1 NMatS0=    1 NMatT0=    0 NMatD0=    1 NMtDS0=    0 NMtDT0=    0
         I1Cent=           4 NGrid=           0.
 Petite list used in FoFCou.
 Initial guess orbital symmetries:
       Occupied  (A) (A) (A) (A) (A) (A) (A) (A) (A) (A) (A) (A)
                 (A) (A) (A) (A) (A) (A) (A) (A) (A) (A) (A) (A)
                 (A) (A) (A) (A) (A) (A) (A) (A) (A) (A) (A) (A)
                 (A) (A) (A)
       Virtual   (A) (A) (A) (A) (A) (A) (A) (A) (A) (A) (A) (A)
                 (A) (A) (A) (A) (A) (A) (A) (A) (A) (A) (A) (A)
                 (A) (A) (A) (A) (A) (A) (A) (A) (A) (A) (A) (A)
                 (A) (A) (A) (A) (A) (A) (A) (A) (A) (A) (A) (A)
                 (A) (A) (A) (A) (A) (A) (A) (A) (A) (A) (A) (A)
                 (A) (A) (A) (A) (A) (A) (A) (A) (A) (A) (A) (A)
                 (A) (A) (A) (A) (A) (A) (A) (A)
 The electronic state of the initial guess is 1-A.
 Requested convergence on RMS density matrix=1.00D-08 within 128 cycles.
 Requested convergence on MAX density matrix=1.00D-06.
 Requested convergence on             energy=1.00D-06.
 No special actions if energy rises.
 Keep R1 ints in memory in canonical form, NReq=26663856.
 Integral accuracy reduced to 1.0D-05 until final iterations.
 Initial convergence to 1.0D-05 achieved.  Increase integral accuracy.
 SCF Done:  E(RB3LYP) =  -458.310047517     A.U. after   16 cycles
             Convg  =    0.3156D-08             -V/T =  2.0051
 ExpMin= 1.61D-01 ExpMax= 4.17D+03 ExpMxC= 6.27D+02 IAcc=1 IRadAn=         1 AccDes= 0.00D+00
 HarFok:  IExCor=  205 AccDes= 0.00D+00 IRadAn=         1 IDoV=-2
 ScaDFX=  1.000000  1.000000  1.000000  1.000000
 Range of M.O.s used for correlation:    12   119
 NBasis=   119 NAE=    39 NBE=    39 NFC=    11 NFV=     0
 NROrb=    108 NOA=    28 NOB=    28 NVA=    80 NVB=    80

 **** Warning!!: The largest alpha MO coefficient is  0.12707050D+02

 Would need an additional    46700000 words for in-memory AO integral storage.
 Orbital symmetries:
       Occupied  (A) (A) (A) (A) (A) (A) (A) (A) (A) (A) (A) (A)
                 (A) (A) (A) (A) (A) (A) (A) (A) (A) (A) (A) (A)
                 (A) (A) (A) (A) (A) (A) (A) (A) (A) (A) (A) (A)
                 (A) (A) (A)
       Virtual   (A) (A) (A) (A) (A) (A) (A) (A) (A) (A) (A) (A)
                 (A) (A) (A) (A) (A) (A) (A) (A) (A) (A) (A) (A)
                 (A) (A) (A) (A) (A) (A) (A) (A) (A) (A) (A) (A)
                 (A) (A) (A) (A) (A) (A) (A) (A) (A) (A) (A) (A)
                 (A) (A) (A) (A) (A) (A) (A) (A) (A) (A) (A) (A)
                 (A) (A) (A) (A) (A) (A) (A) (A) (A) (A) (A) (A)
                 (A) (A) (A) (A) (A) (A) (A) (A)
    12 initial guesses have been made.
 Convergence on wavefunction:    0.000001000000000
 Iteration     1 Dimension    12 NMult    12
 CISAX will form    12 AO SS matrices at one time.
 Iteration     2 Dimension    18 NMult    18
 Iteration     3 Dimension    24 NMult    24
 Iteration     4 Dimension    30 NMult    30
 Iteration     5 Dimension    36 NMult    36
 Iteration     6 Dimension    42 NMult    42
 Iteration     7 Dimension    48 NMult    48
 Iteration     8 Dimension    54 NMult    54
 Iteration     9 Dimension    60 NMult    60
 Iteration    10 Dimension    64 NMult    64
 ***********************************************************************
 Excited states from <AA,BB:AA,BB> singles matrix:
 ***********************************************************************
 
 Ground to excited state transition electric dipole moments (Au):
       state          X           Y           Z        Dip. S.      Osc.
         1        -0.9664     -0.0297      0.0194      0.9351      0.0998
         2         0.1402     -0.2054      0.0694      0.0667      0.0075
         3         0.0910     -0.2322      0.0656      0.0665      0.0089
 Ground to excited state transition velocity dipole moments (Au):
       state          X           Y           Z        Dip. S.      Osc.
         1         0.1276      0.0087     -0.0076      0.0164      0.0684
         2        -0.0147      0.0354     -0.0147      0.0017      0.0066
         3        -0.0130      0.0416     -0.0133      0.0021      0.0069
 Ground to excited state transition magnetic dipole moments (Au):
       state          X           Y           Z
         1         0.2190     -0.0618     -0.0917
         2        -0.0935     -0.0745      0.2941
         3        -0.0613     -0.0692      0.0378
 <0|del|b> * <b|rxdel|0> + <0|del|b> * <b|delr+rdel|0>
 Rotatory Strengths (R) in cgs (10**-40 erg-esu-cm/Gauss)
       state          XX          YY          ZZ    R(velocity)
         1        -0.2599     57.5974     66.8276     41.3884
 Total R(velocity) tensor for State=          1
                 1             2             3 
      1  -0.259853D+00  0.305768D+02  0.307494D+02
      2  -0.357254D+01  0.575974D+02  0.627657D+01
      3   0.502760D+01 -0.151501D+02  0.668276D+02
 R(velocity) tensor in inp. orien. for State=          1
                 1             2             3 
      1   0.372265D+01 -0.730442D+01 -0.430048D+02
      2   0.145500D+02  0.617709D+02  0.123327D+02
      3  -0.121110D+02 -0.169050D+02  0.586717D+02
         2       -13.9049     -7.9872     -1.3082     -7.7334
 Total R(velocity) tensor for State=          2
                 1             2             3 
      1  -0.139049D+02 -0.299399D+01  0.674666D+01
      2   0.781555D+01 -0.798717D+01 -0.271801D+02
      3  -0.259703D+01 -0.162106D+01 -0.130816D+01
 R(velocity) tensor in inp. orien. for State=          2
                 1             2             3 
      1  -0.130618D+02  0.759348D+01 -0.101319D+02
      2  -0.325265D+01  0.126008D+01 -0.254833D+02
      3  -0.340328D+00 -0.108079D+00 -0.113985D+02
         3        -6.8256      1.6963     -3.9555     -3.0283
 Total R(velocity) tensor for State=          3
                 1             2             3 
      1  -0.682562D+01 -0.154172D+01  0.183462D+01
      2   0.487118D+01  0.169634D+01  0.552419D+00
      3  -0.133886D+01 -0.168409D+01 -0.395550D+01
 R(velocity) tensor in inp. orien. for State=          3
                 1             2             3 
      1  -0.696083D+01  0.348439D+01 -0.115523D+01
      2  -0.378787D+01  0.175116D+01  0.216290D+01
      3  -0.520382D+00  0.457201D+00 -0.387511D+01
 1/2[<0|r|b>*<b|rxdel|0> + (<0|rxdel|b>*<b|r|0>)*]
 Rotatory Strengths (R) in cgs (10**-40 erg-esu-cm/Gauss)
       state          XX          YY          ZZ     R(length)     R(au)
         1       149.6468     -1.2989      1.2549     49.8676      0.1058
         2         9.2757    -10.8235    -14.4226     -5.3235     -0.0113
         3         3.9450    -11.3594     -1.7555     -3.0566     -0.0065
  1/2[<0|del|b>*<b|r|0> + (<0|r|b>*<b|del|0>)*] (Au)
       state          X           Y           Z        Dip. S.   Osc.(frdel)
         1        -0.1233     -0.0003     -0.0001      0.1238      0.0825
         2        -0.0021     -0.0073     -0.0010      0.0104      0.0069
         3        -0.0012     -0.0096     -0.0009      0.0117      0.0078
 Ground to excited state transition densities written to RWF  633

 Excitation energies and oscillator strengths:
 
 Excited State   1:      Singlet-A      4.3562 eV  284.62 nm  f=0.0998  <S**2>=0.000
      39 -> 40         0.69119
 This state for optimization and/or second-order correction.
 Copying the excited state density for this state as the 1-particle RhoCI density.
 
 Excited State   2:      Singlet-A      4.6209 eV  268.31 nm  f=0.0075  <S**2>=0.000
      37 -> 40        -0.10465
      38 -> 40         0.11943
      39 -> 41         0.68618
 
 Excited State   3:      Singlet-A      5.4725 eV  226.56 nm  f=0.0089  <S**2>=0.000
      37 -> 40         0.38602
      37 -> 41        -0.31769
      38 -> 40        -0.35053
      38 -> 41        -0.33799
      39 -> 41         0.10482
 SavETr:  write IOETrn=   770 NScale= 10 NData=  16 NLR=1 LETran=      62.
          IDoAtm=111111111111111111111
          Differentiating once with respect to electric field.
                with respect to dipole field.
          Differentiating once with respect to nuclear coordinates.
          Keep R1 ints in memory in canonical form, NReq=26300265.
          There are     1 degrees of freedom in the 1st order CPHF.  IDoFFX=0.
 LinEq1:  Iter=  0 NonCon=     1 RMS=3.68D-02 Max=1.39D+00
 AX will form     1 AO Fock derivatives at one time.
 LinEq1:  Iter=  1 NonCon=     1 RMS=1.90D-02 Max=5.48D-01
 LinEq1:  Iter=  2 NonCon=     1 RMS=1.56D-02 Max=3.31D-01
 LinEq1:  Iter=  3 NonCon=     1 RMS=1.13D-02 Max=1.96D-01
 LinEq1:  Iter=  4 NonCon=     1 RMS=9.50D-03 Max=2.33D-01
 LinEq1:  Iter=  5 NonCon=     1 RMS=4.51D-03 Max=5.68D-02
 LinEq1:  Iter=  6 NonCon=     1 RMS=2.16D-03 Max=3.92D-02
 LinEq1:  Iter=  7 NonCon=     1 RMS=1.04D-03 Max=1.97D-02
 LinEq1:  Iter=  8 NonCon=     1 RMS=4.50D-04 Max=6.51D-03
 LinEq1:  Iter=  9 NonCon=     1 RMS=1.81D-04 Max=1.91D-03
 LinEq1:  Iter= 10 NonCon=     1 RMS=7.36D-05 Max=2.23D-03
 LinEq1:  Iter= 11 NonCon=     1 RMS=5.06D-05 Max=1.10D-03
 LinEq1:  Iter= 12 NonCon=     1 RMS=2.15D-05 Max=2.93D-04
 LinEq1:  Iter= 13 NonCon=     1 RMS=9.83D-06 Max=1.55D-04
 LinEq1:  Iter= 14 NonCon=     1 RMS=4.42D-06 Max=7.90D-05
 LinEq1:  Iter= 15 NonCon=     1 RMS=1.78D-06 Max=2.47D-05
 LinEq1:  Iter= 16 NonCon=     1 RMS=3.55D-07 Max=5.05D-06
 LinEq1:  Iter= 17 NonCon=     1 RMS=9.07D-08 Max=1.75D-06
 LinEq1:  Iter= 18 NonCon=     1 RMS=5.65D-08 Max=9.50D-07
 LinEq1:  Iter= 19 NonCon=     1 RMS=1.12D-08 Max=1.37D-07
 LinEq1:  Iter= 20 NonCon=     1 RMS=4.66D-09 Max=3.42D-08
 LinEq1:  Iter= 21 NonCon=     1 RMS=1.56D-09 Max=1.68D-08
 LinEq1:  Iter= 22 NonCon=     1 RMS=3.24D-10 Max=3.98D-09
 LinEq1:  Iter= 23 NonCon=     0 RMS=6.70D-11 Max=9.28D-10
 Linear equations converged to 1.000D-10 1.000D-09 after    23 iterations.
 End of Minotr Frequency-dependent properties file   721 does not exist.
 End of Minotr Frequency-dependent properties file   722 does not exist.

 **********************************************************************

            Population analysis using the SCF density.

 **********************************************************************

 Orbital symmetries:
       Occupied  (A) (A) (A) (A) (A) (A) (A) (A) (A) (A) (A) (A)
                 (A) (A) (A) (A) (A) (A) (A) (A) (A) (A) (A) (A)
                 (A) (A) (A) (A) (A) (A) (A) (A) (A) (A) (A) (A)
                 (A) (A) (A)
       Virtual   (A) (A) (A) (A) (A) (A) (A) (A) (A) (A) (A) (A)
                 (A) (A) (A) (A) (A) (A) (A) (A) (A) (A) (A) (A)
                 (A) (A) (A) (A) (A) (A) (A) (A) (A) (A) (A) (A)
                 (A) (A) (A) (A) (A) (A) (A) (A) (A) (A) (A) (A)
                 (A) (A) (A) (A) (A) (A) (A) (A) (A) (A) (A) (A)
                 (A) (A) (A) (A) (A) (A) (A) (A) (A) (A) (A) (A)
                 (A) (A) (A) (A) (A) (A) (A) (A)
 The electronic state is 1-A.
 Alpha  occ. eigenvalues --  -14.34731 -14.34308 -10.24711 -10.24047 -10.23221
 Alpha  occ. eigenvalues --  -10.21623 -10.21506 -10.20635 -10.20614 -10.20567
 Alpha  occ. eigenvalues --  -10.20399  -0.95375  -0.93518  -0.87622  -0.77613
 Alpha  occ. eigenvalues --   -0.77515  -0.72993  -0.67431  -0.63859  -0.60856
 Alpha  occ. eigenvalues --   -0.56621  -0.51051  -0.49816  -0.48019  -0.46896
 Alpha  occ. eigenvalues --   -0.45539  -0.44624  -0.43114  -0.41095  -0.39872
 Alpha  occ. eigenvalues --   -0.38695  -0.38140  -0.37410  -0.35073  -0.34929
 Alpha  occ. eigenvalues --   -0.34342  -0.27551  -0.27452  -0.22604
 Alpha virt. eigenvalues --   -0.03954  -0.02410   0.04123   0.07442   0.07476
 Alpha virt. eigenvalues --    0.09313   0.11580   0.13412   0.13782   0.14989
 Alpha virt. eigenvalues --    0.15428   0.15727   0.16119   0.17675   0.18963
 Alpha virt. eigenvalues --    0.19426   0.22301   0.23552   0.25229   0.29784
 Alpha virt. eigenvalues --    0.30570   0.32414   0.34328   0.39712   0.46898
 Alpha virt. eigenvalues --    0.49490   0.50232   0.52806   0.53178   0.53876
 Alpha virt. eigenvalues --    0.55949   0.56345   0.57507   0.58708   0.59391
 Alpha virt. eigenvalues --    0.59898   0.62307   0.63455   0.64013   0.64857
 Alpha virt. eigenvalues --    0.67461   0.68109   0.69565   0.70746   0.72555
 Alpha virt. eigenvalues --    0.76596   0.78908   0.80355   0.83107   0.83537
 Alpha virt. eigenvalues --    0.84926   0.85721   0.88438   0.89730   0.90678
 Alpha virt. eigenvalues --    0.91340   0.93816   0.94363   0.95736   0.96906
 Alpha virt. eigenvalues --    0.98809   1.00652   1.01291   1.02965   1.06519
 Alpha virt. eigenvalues --    1.09557   1.13326   1.14664   1.16246   1.18739
 Alpha virt. eigenvalues --    1.23951   1.25577   1.32402   1.42300   1.46490
 Alpha virt. eigenvalues --    1.47555   1.58954   1.71596   1.81607   1.95299
          Condensed to atoms (all electrons):
              1          2          3          4          5          6
     1  C    4.980837   0.496680  -0.049687  -0.035058  -0.092039   0.538837
     2  C    0.496680   4.935115   0.516629  -0.055961  -0.037409  -0.041860
     3  C   -0.049687   0.516629   4.924759   0.524295  -0.049432  -0.022804
     4  C   -0.035058  -0.055961   0.524295   4.945242   0.453593  -0.026194
     5  C   -0.092039  -0.037409  -0.049432   0.453593   5.145795   0.443586
     6  C    0.538837  -0.041860  -0.022804  -0.026194   0.443586   4.874344
     7  H    0.345865  -0.033600   0.004250   0.000251   0.006640  -0.029109
     8  H   -0.026844   0.354974  -0.037236   0.004161   0.000655   0.003974
     9  H    0.000678   0.004142  -0.035493   0.353580  -0.026419   0.002788
    10  H    0.003306   0.000860   0.003952  -0.027181   0.362562  -0.050592
    11  C    0.004743  -0.023106   0.180109  -0.022175   0.005589   0.000849
    12  N   -0.000012   0.000388  -0.037263   0.000346  -0.000014   0.000007
    13  N   -0.055246   0.004280   0.000180   0.006893  -0.090690   0.270975
    14  C    0.004268  -0.000167  -0.000053   0.001107  -0.004948  -0.062990
    15  H   -0.000825   0.000046  -0.000015  -0.000291   0.002117  -0.015885
    16  H   -0.000090   0.000001   0.000001  -0.000016   0.000288   0.006940
    17  H    0.000593  -0.000037  -0.000007  -0.000039  -0.000388  -0.000852
    18  C   -0.007996  -0.000121   0.000015   0.000036  -0.000984  -0.066589
    19  H    0.004254  -0.000176  -0.000006   0.000044  -0.000930  -0.002893
    20  H    0.000248  -0.000001   0.000000   0.000007  -0.000324   0.006663
    21  H   -0.000737   0.000088  -0.000026  -0.000587   0.009065  -0.004659
              7          8          9         10         11         12
     1  C    0.345865  -0.026844   0.000678   0.003306   0.004743  -0.000012
     2  C   -0.033600   0.354974   0.004142   0.000860  -0.023106   0.000388
     3  C    0.004250  -0.037236  -0.035493   0.003952   0.180109  -0.037263
     4  C    0.000251   0.004161   0.353580  -0.027181  -0.022175   0.000346
     5  C    0.006640   0.000655  -0.026419   0.362562   0.005589  -0.000014
     6  C   -0.029109   0.003974   0.002788  -0.050592   0.000849   0.000007
     7  H    0.563486  -0.004156   0.000014  -0.000154  -0.000164   0.000000
     8  H   -0.004156   0.553557  -0.000175   0.000012  -0.005177   0.000215
     9  H    0.000014  -0.000175   0.553937  -0.003558  -0.004945   0.000227
    10  H   -0.000154   0.000012  -0.003558   0.575497  -0.000185   0.000000
    11  C   -0.000164  -0.005177  -0.004945  -0.000185   4.964251   0.901379
    12  N    0.000000   0.000215   0.000227   0.000000   0.901379   6.369680
    13  N    0.000379  -0.000103  -0.000119  -0.012456  -0.000001   0.000000
    14  C    0.000082   0.000003   0.000020  -0.000851   0.000000   0.000000
    15  H    0.000048   0.000000   0.000045   0.008028   0.000000   0.000000
    16  H   -0.000014   0.000000   0.000000  -0.000052   0.000000   0.000000
    17  H   -0.000041   0.000000  -0.000006  -0.000324   0.000000   0.000000
    18  C    0.000279   0.000002   0.000000  -0.000121   0.000000   0.000000
    19  H    0.000205   0.000004   0.000000  -0.000038   0.000000   0.000000
    20  H   -0.000088   0.000000   0.000000  -0.000055   0.000000   0.000000
    21  H    0.000225   0.000000   0.000011   0.001461   0.000000   0.000000
             13         14         15         16         17         18
     1  C   -0.055246   0.004268  -0.000825  -0.000090   0.000593  -0.007996
     2  C    0.004280  -0.000167   0.000046   0.000001  -0.000037  -0.000121
     3  C    0.000180  -0.000053  -0.000015   0.000001  -0.000007   0.000015
     4  C    0.006893   0.001107  -0.000291  -0.000016  -0.000039   0.000036
     5  C   -0.090690  -0.004948   0.002117   0.000288  -0.000388  -0.000984
     6  C    0.270975  -0.062990  -0.015885   0.006940  -0.000852  -0.066589
     7  H    0.000379   0.000082   0.000048  -0.000014  -0.000041   0.000279
     8  H   -0.000103   0.000003   0.000000   0.000000   0.000000   0.000002
     9  H   -0.000119   0.000020   0.000045   0.000000  -0.000006   0.000000
    10  H   -0.012456  -0.000851   0.008028  -0.000052  -0.000324  -0.000121
    11  C   -0.000001   0.000000   0.000000   0.000000   0.000000   0.000000
    12  N    0.000000   0.000000   0.000000   0.000000   0.000000   0.000000
    13  N    7.079544   0.275761  -0.067185  -0.037575  -0.037949   0.285002
    14  C    0.275761   5.012310   0.354522   0.377416   0.383733  -0.071238
    15  H   -0.067185   0.354522   0.673908  -0.041551  -0.045962  -0.005226
    16  H   -0.037575   0.377416  -0.041551   0.569129  -0.023489  -0.003476
    17  H   -0.037949   0.383733  -0.045962  -0.023489   0.554245   0.006258
    18  C    0.285002  -0.071238  -0.005226  -0.003476   0.006258   5.019026
    19  H   -0.038620   0.006498  -0.000496   0.000140  -0.000258   0.379570
    20  H   -0.037667  -0.002859  -0.002060   0.004589   0.000132   0.375324
    21  H   -0.072692  -0.006702   0.017958  -0.001924  -0.000486   0.358736
             19         20         21
     1  C    0.004254   0.000248  -0.000737
     2  C   -0.000176  -0.000001   0.000088
     3  C   -0.000006   0.000000  -0.000026
     4  C    0.000044   0.000007  -0.000587
     5  C   -0.000930  -0.000324   0.009065
     6  C   -0.002893   0.006663  -0.004659
     7  H    0.000205  -0.000088   0.000225
     8  H    0.000004   0.000000   0.000000
     9  H    0.000000   0.000000   0.000011
    10  H   -0.000038  -0.000055   0.001461
    11  C    0.000000   0.000000   0.000000
    12  N    0.000000   0.000000   0.000000
    13  N   -0.038620  -0.037667  -0.072692
    14  C    0.006498  -0.002859  -0.006702
    15  H   -0.000496  -0.002060   0.017958
    16  H    0.000140   0.004589  -0.001924
    17  H   -0.000258   0.000132  -0.000486
    18  C    0.379570   0.375324   0.358736
    19  H    0.559643  -0.023578  -0.041199
    20  H   -0.023578   0.570088  -0.043978
    21  H   -0.041199  -0.043978   0.660285
 Mulliken atomic charges:
              1
     1  C   -0.111774
     2  C   -0.120765
     3  C    0.077834
     4  C   -0.122052
     5  C   -0.126311
     6  C    0.175464
     7  H    0.145604
     8  H    0.156135
     9  H    0.155271
    10  H    0.139888
    11  C   -0.001167
    12  N   -0.234953
    13  N   -0.472711
    14  C   -0.265910
    15  H    0.122824
    16  H    0.149683
    17  H    0.164876
    18  C   -0.268498
    19  H    0.157837
    20  H    0.153561
    21  H    0.125163
 Sum of Mulliken atomic charges =   0.00000
 Mulliken charges with hydrogens summed into heavy atoms:
              1
     1  C    0.033830
     2  C    0.035370
     3  C    0.077834
     4  C    0.033219
     5  C    0.013577
     6  C    0.175464
    11  C   -0.001167
    12  N   -0.234953
    13  N   -0.472711
    14  C    0.171473
    18  C    0.168063
 Sum of Mulliken charges with hydrogens summed into heavy atoms =   0.00000
 Electronic spatial extent (au):  <R**2>=           2152.3693
 Charge=              0.0000 electrons
 Dipole moment (field-independent basis, Debye):
    X=             -5.0699    Y=             -0.3901    Z=              0.5323  Tot=              5.1126
 Quadrupole moment (field-independent basis, Debye-Ang):
   XX=            -85.4905   YY=            -58.8602   ZZ=            -66.2908
   XY=              3.9994   XZ=             -3.3601   YZ=              0.0425
 Traceless Quadrupole moment (field-independent basis, Debye-Ang):
   XX=            -15.2767   YY=             11.3536   ZZ=              3.9230
   XY=              3.9994   XZ=             -3.3601   YZ=              0.0425
 Octapole moment (field-independent basis, Debye-Ang**2):
  XXX=           -166.2768  YYY=              2.7519  ZZZ=             -0.2323  XYY=              1.0941
  XXY=              2.0726  XXZ=              0.0884  XZZ=             -4.1293  YZZ=             -0.6380
  YYZ=              0.1046  XYZ=             -6.4716
 Hexadecapole moment (field-independent basis, Debye-Ang**3):
 XXXX=          -3009.9933 YYYY=           -362.9791 ZZZZ=           -176.0955 XXXY=             54.6143
 XXXZ=            -44.9491 YYYX=             -0.6702 YYYZ=             -8.9240 ZZZX=              1.8990
 ZZZY=              4.4454 XXYY=           -445.3017 XXZZ=           -421.8299 YYZZ=            -94.2713
 XXYZ=             12.5618 YYXZ=             -2.2388 ZZXY=              1.6930
 N-N= 5.458402255254D+02 E-N=-2.155128711481D+03  KE= 4.559788133708D+02
 Calling FoFJK, ICntrl=      5127 FMM=F ISym2X=0 I1Cent= 0 IOpClX= 0 NMat=1 NMatS=1 NMatT=0.
 ***** Axes restored to original set *****
 -------------------------------------------------------------------
 Center     Atomic                   Forces (Hartrees/Bohr)
 Number     Number              X              Y              Z
 -------------------------------------------------------------------
      1        6           0.027041675   -0.015315677    0.003650755
      2        6          -0.033712697   -0.008174627   -0.002291630
      3        6           0.099284782   -0.016624404    0.005588666
      4        6          -0.035674212    0.023262535   -0.002810761
      5        6           0.032040258    0.003508193   -0.005450564
      6        6           0.001754455   -0.015226397    0.016370246
      7        1          -0.005515595   -0.010095089    0.000471538
      8        1           0.003372513   -0.009174760   -0.000882908
      9        1           0.004100721    0.008540644    0.002382840
     10        1           0.003736560    0.010358573    0.000143139
     11        6          -0.162790885    0.013091970   -0.010825377
     12        7           0.092717548   -0.007633310    0.005847670
     13        7           0.029223479    0.056413921   -0.026137397
     14        6          -0.028408048   -0.031605665    0.018718785
     15        1           0.004420996    0.011611757   -0.006653563
     16        1          -0.016580591    0.003864226   -0.001155227
     17        1           0.005433906   -0.000217689    0.013232194
     18        6          -0.019919333   -0.022569022    0.006504268
     19        1           0.006174202   -0.010576243   -0.007701137
     20        1          -0.017641717    0.002421055   -0.003081878
     21        1           0.010941986    0.014140007   -0.005919659
 -------------------------------------------------------------------
 Cartesian Forces:  Max     0.162790885 RMS     0.031137093

 GradGradGradGradGradGradGradGradGradGradGradGradGradGradGradGradGradGrad
 Berny optimization.
 Internal  Forces:  Max     0.093212589 RMS     0.016154510
 Search for a local minimum.
 Step number   1 out of a maximum of  106
 All quantities printed in internal units (Hartrees-Bohrs-Radians)
 Mixed Optimization -- RFO/linear search
 Second derivative matrix not updated -- first step.
     Eigenvalues ---    0.00766   0.00766   0.00766   0.01669   0.02070
     Eigenvalues ---    0.02070   0.02070   0.02070   0.02070   0.02070
     Eigenvalues ---    0.02070   0.02070   0.03454   0.05044   0.05044
     Eigenvalues ---    0.07537   0.07537   0.07537   0.07537   0.16000
     Eigenvalues ---    0.16000   0.16000   0.16000   0.16000   0.16000
     Eigenvalues ---    0.16000   0.16000   0.16000   0.16000   0.16276
     Eigenvalues ---    0.17820   0.22000   0.22981   0.24000   0.25000
     Eigenvalues ---    0.25000   0.28519   0.35740   0.35740   0.35740
     Eigenvalues ---    0.37230   0.37230   0.37230   0.37230   0.37230
     Eigenvalues ---    0.37230   0.37230   0.37230   0.37230   0.37230
     Eigenvalues ---    0.41268   0.41640   0.45389   0.45389   0.45389
     Eigenvalues ---    0.45389   1.369801000.000001000.000001000.00000
     Eigenvalues --- 1000.000001000.000001000.000001000.000001000.00000
     Eigenvalues --- 1000.000001000.000001000.000001000.000001000.00000
     Eigenvalues --- 1000.000001000.000001000.000001000.000001000.00000
     Eigenvalues --- 1000.000001000.000001000.000001000.000001000.00000
     Eigenvalues --- 1000.000001000.000001000.000001000.000001000.00000
     Eigenvalues --- 1000.000001000.000001000.000001000.000001000.00000
     Eigenvalues --- 1000.000001000.000001000.000001000.000001000.00000
     Eigenvalues --- 1000.00000
 RFO step:  Lambda=-7.09001223D-02 EMin= 7.65814493D-03
 Linear search not attempted -- first point.
 Maximum step size (   0.300) exceeded in Quadratic search.
    -- Step size scaled by   0.474
 Iteration  1 RMS(Cart)=  0.08698126 RMS(Int)=  0.00268248
 Iteration  2 RMS(Cart)=  0.00440496 RMS(Int)=  0.00068156
 Iteration  3 RMS(Cart)=  0.00000925 RMS(Int)=  0.00068154
 Iteration  4 RMS(Cart)=  0.00000001 RMS(Int)=  0.00068154
 Variable       Old X    -DE/DX   Delta X   Delta X   Delta X     New X
                                 (Linear)    (Quad)   (Total)
    R1        2.64826  -0.01674   0.00000  -0.01526  -0.01526   2.63300
    R2        2.64826   0.02486   0.00000   0.02230   0.02230   2.67056
    R3        2.02201   0.01134   0.00000   0.01213   0.01213   2.03414
    R4        2.64826   0.02208   0.00000   0.01997   0.01997   2.66823
    R5        2.02201   0.00976   0.00000   0.01044   0.01044   2.03245
    R6        2.64826   0.03250   0.00000   0.02952   0.02952   2.67778
    R7        2.91018  -0.07045   0.00000  -0.09381  -0.09381   2.81637
    R8        2.64826  -0.01625   0.00000  -0.01454  -0.01454   2.63373
    R9        2.02201   0.00955   0.00000   0.01021   0.01021   2.03222
   R10        2.64826   0.02454   0.00000   0.02215   0.02215   2.67042
   R11        2.02201   0.00774   0.00000   0.00828   0.00828   2.03029
   R12        2.77790   0.02886   0.00000   0.03194   0.03194   2.80984
   R13        2.16676   0.09321   0.00000   0.03068   0.03068   2.19744
   R14        2.77790   0.00980   0.00000   0.01084   0.01084   2.78874
   R15        2.77790   0.01368   0.00000   0.01514   0.01514   2.79304
   R16        2.02201   0.01396   0.00000   0.01493   0.01493   2.03694
   R17        2.02201   0.01688   0.00000   0.01806   0.01806   2.04007
   R18        2.02201   0.01417   0.00000   0.01515   0.01515   2.03716
   R19        2.02201   0.01430   0.00000   0.01530   0.01530   2.03731
   R20        2.02201   0.01793   0.00000   0.01918   0.01918   2.04119
   R21        2.02201   0.01852   0.00000   0.01981   0.01981   2.04182
    A1        2.09440   0.00292   0.00000   0.00407   0.00408   2.09847
    A2        2.09440  -0.00268   0.00000  -0.00454  -0.00454   2.08986
    A3        2.09440  -0.00024   0.00000   0.00047   0.00046   2.09486
    A4        2.09440   0.00057   0.00000   0.00059   0.00059   2.09499
    A5        2.09440  -0.00124   0.00000  -0.00226  -0.00226   2.09213
    A6        2.09440   0.00067   0.00000   0.00167   0.00167   2.09606
    A7        2.09440  -0.00279   0.00000  -0.00393  -0.00393   2.09047
    A8        2.09440   0.00084   0.00000   0.00115   0.00115   2.09554
    A9        2.09440   0.00195   0.00000   0.00278   0.00278   2.09718
   A10        2.09440   0.00103   0.00000   0.00213   0.00213   2.09653
   A11        2.09440   0.00096   0.00000   0.00196   0.00196   2.09636
   A12        2.09440  -0.00199   0.00000  -0.00409  -0.00409   2.09030
   A13        2.09440   0.00004   0.00000   0.00017   0.00018   2.09457
   A14        2.09440  -0.00789   0.00000  -0.01624  -0.01625   2.07815
   A15        2.09440   0.00785   0.00000   0.01607   0.01607   2.11046
   A16        2.09440  -0.00177   0.00000  -0.00303  -0.00305   2.09135
   A17        2.09440  -0.02148   0.00000  -0.03153  -0.03156   2.06284
   A18        2.09440   0.02325   0.00000   0.03456   0.03453   2.12893
   A19        1.91063   0.02718   0.00000   0.08077   0.07853   1.98917
   A20        1.91063  -0.00153   0.00000   0.02250   0.01817   1.92880
   A21        1.91063   0.00433   0.00000   0.03285   0.02927   1.93991
   A22        1.91063  -0.00133   0.00000  -0.00363  -0.00363   1.90700
   A23        1.91063   0.00289   0.00000   0.00618   0.00617   1.91681
   A24        1.91063   0.00065   0.00000   0.00199   0.00198   1.91261
   A25        1.91063  -0.00215   0.00000  -0.00571  -0.00570   1.90493
   A26        1.91063  -0.00019   0.00000  -0.00090  -0.00090   1.90973
   A27        1.91063   0.00013   0.00000   0.00207   0.00204   1.91268
   A28        1.91063  -0.00051   0.00000  -0.00145  -0.00149   1.90915
   A29        1.91063   0.00472   0.00000   0.01116   0.01116   1.92179
   A30        1.91063  -0.00442   0.00000  -0.01013  -0.01014   1.90049
   A31        1.91063   0.00012   0.00000   0.00236   0.00234   1.91297
   A32        1.91063  -0.00060   0.00000  -0.00414  -0.00419   1.90644
   A33        1.91063   0.00069   0.00000   0.00220   0.00223   1.91286
   A34        3.14159  -0.00030   0.00000  -0.00117  -0.00117   3.14042
   A35        3.14159  -0.00056   0.00000  -0.00220  -0.00220   3.13940
    D1        0.00000  -0.00026   0.00000  -0.00143  -0.00139  -0.00139
    D2        3.14159   0.00007   0.00000   0.00029   0.00030  -3.14130
    D3        3.14159   0.00009   0.00000   0.00040   0.00048  -3.14111
    D4        0.00000   0.00042   0.00000   0.00213   0.00217   0.00216
    D5        0.00000   0.00038   0.00000   0.00225   0.00221   0.00221
    D6       -3.14159  -0.00195   0.00000  -0.01041  -0.01018   3.13141
    D7       -3.14159   0.00004   0.00000   0.00041   0.00034  -3.14125
    D8        0.00000  -0.00230   0.00000  -0.01224  -0.01206  -0.01206
    D9        0.00000   0.00009   0.00000   0.00041   0.00039   0.00040
   D10       -3.14159   0.00036   0.00000   0.00190   0.00188  -3.13971
   D11       -3.14159  -0.00024   0.00000  -0.00132  -0.00129   3.14030
   D12        0.00000   0.00004   0.00000   0.00017   0.00019   0.00019
   D13        0.00000  -0.00005   0.00000  -0.00020  -0.00023  -0.00023
   D14        3.14159  -0.00035   0.00000  -0.00172  -0.00172   3.13987
   D15        3.14159  -0.00032   0.00000  -0.00169  -0.00171   3.13988
   D16        0.00000  -0.00062   0.00000  -0.00321  -0.00320  -0.00320
   D17        0.00000   0.00018   0.00000   0.00102   0.00106   0.00106
   D18        3.14159   0.00081   0.00000   0.00427   0.00432  -3.13727
   D19       -3.14159   0.00048   0.00000   0.00254   0.00254  -3.13905
   D20        0.00000   0.00111   0.00000   0.00579   0.00580   0.00580
   D21        0.00000  -0.00034   0.00000  -0.00204  -0.00205  -0.00205
   D22        3.14159   0.00199   0.00000   0.01061   0.01084  -3.13076
   D23       -3.14159  -0.00098   0.00000  -0.00529  -0.00537   3.13623
   D24        0.00000   0.00136   0.00000   0.00736   0.00751   0.00751
   D25        2.61799  -0.01774   0.00000  -0.09614  -0.09683   2.52116
   D26       -1.57080   0.00327   0.00000   0.00733   0.00804  -1.56276
   D27       -0.52360  -0.02008   0.00000  -0.10880  -0.10951  -0.63311
   D28        1.57080   0.00093   0.00000  -0.00533  -0.00464   1.56616
   D29        1.04720   0.00982   0.00000   0.05428   0.05523   1.10243
   D30        3.14159   0.00814   0.00000   0.04885   0.04979  -3.09180
   D31       -1.04720   0.01047   0.00000   0.05639   0.05734  -0.98985
   D32       -1.04720  -0.00761   0.00000  -0.04285  -0.04380  -1.09099
   D33        1.04720  -0.00928   0.00000  -0.04828  -0.04924   0.99796
   D34        3.14159  -0.00696   0.00000  -0.04074  -0.04168   3.09991
   D35        1.04720  -0.01925   0.00000  -0.07094  -0.07064   0.97656
   D36        3.14159  -0.01653   0.00000  -0.06210  -0.06179   3.07980
   D37       -1.04720  -0.01550   0.00000  -0.05877  -0.05851  -1.10571
   D38       -3.14159   0.01575   0.00000   0.06188   0.06160  -3.07999
   D39       -1.04720   0.01848   0.00000   0.07071   0.07045  -0.97675
   D40        1.04720   0.01951   0.00000   0.07404   0.07373   1.12093
         Item               Value     Threshold  Converged?
 Maximum Force            0.093213     0.000450     NO 
 RMS     Force            0.016155     0.000300     NO 
 Maximum Displacement     0.356278     0.001800     NO 
 RMS     Displacement     0.088355     0.001200     NO 
 Predicted change in Energy=-2.890847D-02
 GradGradGradGradGradGradGradGradGradGradGradGradGradGradGradGradGradGrad

                          Input orientation:                          
 ---------------------------------------------------------------------
 Center     Atomic      Atomic             Coordinates (Angstroms)
 Number     Number       Type             X           Y           Z
 ---------------------------------------------------------------------
      1          6           0       -2.334912   -0.713437    0.107463
      2          6           0       -0.952380   -0.868763    0.183797
      3          6           0       -0.118668    0.265660    0.291760
      4          6           0       -0.693040    1.560688    0.322587
      5          6           0       -2.076148    1.714378    0.246333
      6          6           0       -2.908759    0.577617    0.139335
      7          1           0       -2.966071   -1.581559    0.025710
      8          1           0       -0.521855   -1.854044    0.158746
      9          1           0       -0.063262    2.428367    0.406289
     10          1           0       -2.493305    2.704249    0.267154
     11          6           0        1.360383    0.100460    0.371042
     12          7           0        2.514465   -0.027147    0.434217
     13          7           0       -4.388074    0.691420    0.041556
     14          6           0       -4.959927    1.785809    0.849703
     15          1           0       -4.586617    2.729208    0.485686
     16          1           0       -6.036452    1.776294    0.769407
     17          1           0       -4.673343    1.660970    1.881405
     18          6           0       -4.807076    0.797158   -1.371871
     19          1           0       -4.425710   -0.047731   -1.922339
     20          1           0       -5.884942    0.816977   -1.439221
     21          1           0       -4.401025    1.706969   -1.789978
 ---------------------------------------------------------------------
                    Distance matrix (angstroms):
                    1          2          3          4          5
     1  C    0.000000
     2  C    1.393323   0.000000
     3  C    2.429884   1.411966   0.000000
     4  C    2.813125   2.447193   1.417022   0.000000
     5  C    2.445512   2.817691   2.435688   1.393708   0.000000
     6  C    1.413201   2.433395   2.811612   2.430931   1.413123
     7  H    1.076420   2.141967   3.404513   3.889541   3.421088
     8  H    2.142614   1.075527   2.161804   3.422944   3.893217
     9  H    3.888525   3.422149   2.166447   1.075404   2.141746
    10  H    3.425080   3.892020   3.403855   2.133485   1.074383
    11  C    3.793034   2.514623   1.490358   2.520150   3.798687
    12  N    4.908587   3.576317   2.653190   3.580750   4.913444
    13  N    2.488663   3.776030   4.297872   3.806296   2.536411
    14  C    3.699711   4.852898   5.104895   4.305213   2.947091
    15  H    4.130985   5.122911   5.105806   4.068413   2.718387
    16  H    4.509803   5.760820   6.126200   5.366394   3.995178
    17  H    3.775307   4.809053   5.021845   4.275837   3.069485
    18  C    3.252987   4.478179   5.003133   4.514362   3.304217
    19  H    2.989096   4.144143   4.852943   4.643224   3.650837
    20  H    4.163785   5.459494   6.045673   5.532894   4.260673
    21  H    3.705060   4.735329   4.974896   4.270069   3.090578
                    6          7          8          9         10
     6  C    0.000000
     7  H    2.162923   0.000000
     8  H    3.407443   2.462954   0.000000
     9  H    3.404908   4.964942   4.314005   0.000000
    10  H    2.170600   4.318560   4.967536   2.449608   0.000000
    11  C    4.301969   4.654745   2.721760   2.728948   4.652034
    12  N    5.464802   5.711336   3.554248   3.560198   5.706680
    13  N    1.486904   2.681190   4.630419   4.674828   2.773541
    14  C    2.484279   3.999200   5.781215   4.958511   2.695760
    15  H    2.750366   4.628224   6.134769   4.534044   2.104836
    16  H    3.408266   4.610368   6.630463   6.019639   3.696924
    17  H    2.705959   4.107600   5.705939   4.900787   2.906338
    18  C    2.436299   3.316750   5.266383   5.322262   3.417154
    19  H    2.634900   2.877163   4.778469   5.530327   4.012663
    20  H    3.377395   4.052012   6.200852   6.316205   4.239896
    21  H    2.687851   4.021223   5.614829   4.915302   2.977543
                   11         12         13         14         15
    11  C    0.000000
    12  N    1.162833   0.000000
    13  N    5.788139   6.950940   0.000000
    14  C    6.558646   7.702336   1.475739   0.000000
    15  H    6.503097   7.617448   2.095054   1.077900   0.000000
    16  H    7.594753   8.745452   2.103298   1.079557   1.758000
    17  H    6.412662   7.523874   2.099154   1.078019   1.759740
    18  C    6.446758   7.585935   1.478013   2.436429   2.689226
    19  H    6.225787   7.329379   2.098725   3.366226   3.679112
    20  H    7.502345   8.647101   2.109284   2.652067   3.007913
    21  H    6.359615   7.468481   2.094284   2.699353   2.501613
                   16         17         18         19         20
    16  H    0.000000
    17  H    1.762925   0.000000
    18  C    2.656152   3.368659   0.000000
    19  H    3.628643   4.177254   1.078097   0.000000
    20  H    2.412733   3.634124   1.080149   1.763656   0.000000
    21  H    3.038071   3.681756   1.080484   1.759858   1.765538
                   21
    21  H    0.000000
 Stoichiometry    C9H10N2
 Framework group  C1[X(C9H10N2)]
 Deg. of freedom    57
 Full point group                 C1      NOp   1
 Largest Abelian subgroup         C1      NOp   1
 Largest concise Abelian subgroup C1      NOp   1
                         Standard orientation:                         
 ---------------------------------------------------------------------
 Center     Atomic      Atomic             Coordinates (Angstroms)
 Number     Number       Type             X           Y           Z
 ---------------------------------------------------------------------
      1          6           0       -0.118893    1.282005   -0.424174
      2          6           0        1.270451    1.205270   -0.352175
      3          6           0        1.894006   -0.013877   -0.007926
      4          6           0        1.102162   -1.157323    0.263121
      5          6           0       -0.287446   -1.078993    0.190488
      6          6           0       -0.909421    0.141891   -0.155208
      7          1           0       -0.589290    2.213708   -0.687493
      8          1           0        1.866423    2.076652   -0.557768
      9          1           0        1.571454   -2.089018    0.524276
     10          1           0       -0.871505   -1.955293    0.403261
     11          6           0        3.379964   -0.096139    0.071638
     12          7           0        4.539318   -0.161953    0.132857
     13          7           0       -2.388051    0.278229   -0.232346
     14          6           0       -3.074083   -0.919152   -0.755266
     15          1           0       -2.908538   -1.745672   -0.083456
     16          1           0       -4.134389   -0.730359   -0.829774
     17          1           0       -2.681354   -1.164358   -1.728797
     18          6           0       -2.940267    0.679286    1.078659
     19          1           0       -2.463179    1.589467    1.404619
     20          1           0       -4.006009    0.836685    1.000300
     21          1           0       -2.741321   -0.103551    1.796316
 ---------------------------------------------------------------------
 Rotational constants (GHZ):      3.3999348      0.5511091      0.5108836
 Standard basis: 6-31G (6D, 7F)
 There are   119 symmetry adapted basis functions of A   symmetry.
 Integral buffers will be    262144 words long.
 Raffenetti 2 integral format.
 Two-electron integral symmetry is turned on.
   119 basis functions,   282 primitive gaussians,   119 cartesian basis functions
    39 alpha electrons       39 beta electrons
       nuclear repulsion energy       542.0506458844 Hartrees.
 NAtoms=   21 NActive=   21 NUniq=   21 SFac= 7.50D-01 NAtFMM=   80 NAOKFM=F Big=F
 One-electron integrals computed using PRISM.
 NBasis=   119 RedAO= T  NBF=   119
 NBsUse=   119 1.00D-06 NBFU=   119
 Initial guess read from the read-write file.
 B after Tr=     0.000000    0.000000    0.000000
         Rot=    1.000000    0.000000    0.000000    0.000000 Ang=   0.00 deg.
 Initial guess orbital symmetries:
       Occupied  (A) (A) (A) (A) (A) (A) (A) (A) (A) (A) (A) (A)
                 (A) (A) (A) (A) (A) (A) (A) (A) (A) (A) (A) (A)
                 (A) (A) (A) (A) (A) (A) (A) (A) (A) (A) (A) (A)
                 (A) (A) (A)
       Virtual   (A) (A) (A) (A) (A) (A) (A) (A) (A) (A) (A) (A)
                 (A) (A) (A) (A) (A) (A) (A) (A) (A) (A) (A) (A)
                 (A) (A) (A) (A) (A) (A) (A) (A) (A) (A) (A) (A)
                 (A) (A) (A) (A) (A) (A) (A) (A) (A) (A) (A) (A)
                 (A) (A) (A) (A) (A) (A) (A) (A) (A) (A) (A) (A)
                 (A) (A) (A) (A) (A) (A) (A) (A) (A) (A) (A) (A)
                 (A) (A) (A) (A) (A) (A) (A) (A)
 Harris functional with IExCor=  402 diagonalized for initial guess.
 ExpMin= 1.61D-01 ExpMax= 4.17D+03 ExpMxC= 6.27D+02 IAcc=1 IRadAn=         1 AccDes= 0.00D+00
 HarFok:  IExCor=  402 AccDes= 0.00D+00 IRadAn=         1 IDoV= 1
 ScaDFX=  1.000000  1.000000  1.000000  1.000000
 FoFCou: FMM=F IPFlag=           0 FMFlag=      100000 FMFlg1=           0
         NFxFlg=           0 DoJE=T BraDBF=F KetDBF=T FulRan=T
         Omega=  0.000000  0.000000  1.000000  0.000000  0.000000 ICntrl=     500 IOpCl=  0
         NMat0=    1 NMatS0=    1 NMatT0=    0 NMatD0=    1 NMtDS0=    0 NMtDT0=    0
         I1Cent=           4 NGrid=           0.
 Petite list used in FoFCou.
 Requested convergence on RMS density matrix=1.00D-08 within 128 cycles.
 Requested convergence on MAX density matrix=1.00D-06.
 Requested convergence on             energy=1.00D-06.
 No special actions if energy rises.
 Keep R1 ints in memory in canonical form, NReq=26663852.
 Integral accuracy reduced to 1.0D-05 until final iterations.
 Initial convergence to 1.0D-05 achieved.  Increase integral accuracy.
 SCF Done:  E(RB3LYP) =  -458.322085520     A.U. after   13 cycles
             Convg  =    0.9097D-08             -V/T =  2.0058
 ExpMin= 1.61D-01 ExpMax= 4.17D+03 ExpMxC= 6.27D+02 IAcc=1 IRadAn=         1 AccDes= 0.00D+00
 HarFok:  IExCor=  205 AccDes= 0.00D+00 IRadAn=         1 IDoV=-2
 ScaDFX=  1.000000  1.000000  1.000000  1.000000
 Range of M.O.s used for correlation:    12   119
 NBasis=   119 NAE=    39 NBE=    39 NFC=    11 NFV=     0
 NROrb=    108 NOA=    28 NOB=    28 NVA=    80 NVB=    80

 **** Warning!!: The largest alpha MO coefficient is  0.12414033D+02

 Would need an additional    44600000 words for in-memory AO integral storage.
 Orbital symmetries:
       Occupied  (A) (A) (A) (A) (A) (A) (A) (A) (A) (A) (A) (A)
                 (A) (A) (A) (A) (A) (A) (A) (A) (A) (A) (A) (A)
                 (A) (A) (A) (A) (A) (A) (A) (A) (A) (A) (A) (A)
                 (A) (A) (A)
       Virtual   (A) (A) (A) (A) (A) (A) (A) (A) (A) (A) (A) (A)
                 (A) (A) (A) (A) (A) (A) (A) (A) (A) (A) (A) (A)
                 (A) (A) (A) (A) (A) (A) (A) (A) (A) (A) (A) (A)
                 (A) (A) (A) (A) (A) (A) (A) (A) (A) (A) (A) (A)
                 (A) (A) (A) (A) (A) (A) (A) (A) (A) (A) (A) (A)
                 (A) (A) (A) (A) (A) (A) (A) (A) (A) (A) (A) (A)
                 (A) (A) (A) (A) (A) (A) (A) (A)
 Generating guess from densities on rwf.
 Convergence on wavefunction:    0.000001000000000
 Iteration     1 Dimension     6 NMult     6
 CISAX will form     6 AO SS matrices at one time.
 Iteration     2 Dimension    12 NMult    12
 Iteration     3 Dimension    18 NMult    18
 Iteration     4 Dimension    24 NMult    24
 Iteration     5 Dimension    30 NMult    30
 Iteration     6 Dimension    36 NMult    36
 Iteration     7 Dimension    42 NMult    42
 Iteration     8 Dimension    48 NMult    48
 Iteration     9 Dimension    54 NMult    54
 Iteration    10 Dimension    56 NMult    56
 ***********************************************************************
 Excited states from <AA,BB:AA,BB> singles matrix:
 ***********************************************************************
 
 Ground to excited state transition electric dipole moments (Au):
       state          X           Y           Z        Dip. S.      Osc.
         1        -0.9477     -0.0196      0.0187      0.8988      0.0878
         2         0.1135     -0.1776      0.0667      0.0489      0.0054
         3         0.0445     -0.2305      0.0679      0.0597      0.0078
 Ground to excited state transition velocity dipole moments (Au):
       state          X           Y           Z        Dip. S.      Osc.
         1         0.1146      0.0064     -0.0058      0.0132      0.0602
         2        -0.0102      0.0301     -0.0152      0.0012      0.0050
         3        -0.0051      0.0396     -0.0136      0.0018      0.0060
 Ground to excited state transition magnetic dipole moments (Au):
       state          X           Y           Z
         1         0.2139     -0.0371     -0.0675
         2        -0.0753     -0.0769      0.3043
         3        -0.0423     -0.0629      0.0329
 <0|del|b> * <b|rxdel|0> + <0|del|b> * <b|delr+rdel|0>
 Rotatory Strengths (R) in cgs (10**-40 erg-esu-cm/Gauss)
       state          XX          YY          ZZ    R(velocity)
         1         0.0467     53.6162     65.4613     39.7080
 Total R(velocity) tensor for State=          1
                 1             2             3 
      1   0.466502D-01  0.202022D+02  0.234036D+02
      2  -0.276989D+01  0.536162D+02  0.467528D+01
      3   0.407472D+01 -0.138577D+02  0.654613D+02
 R(velocity) tensor in inp. orien. for State=          1
                 1             2             3 
      1   0.380538D+01 -0.601688D+00 -0.326529D+02
      2   0.135101D+02  0.569321D+02  0.838485D+01
      3  -0.110876D+02 -0.157106D+02  0.583867D+02
         2       -14.0875    -10.0026     -2.4051     -8.8317
 Total R(velocity) tensor for State=          2
                 1             2             3 
      1  -0.140875D+02 -0.223326D+01  0.501274D+01
      2   0.561017D+01 -0.100026D+02 -0.235203D+02
      3  -0.196820D+01 -0.188349D+01 -0.240511D+01
 R(velocity) tensor in inp. orien. for State=          2
                 1             2             3 
      1  -0.133483D+02  0.594044D+01 -0.851600D+01
      2  -0.177787D+01 -0.209037D+01 -0.225599D+02
      3  -0.384500D+00 -0.128291D+01 -0.110565D+02
         3        -6.1021      0.9893     -4.6925     -3.2684
 Total R(velocity) tensor for State=          3
                 1             2             3 
      1  -0.610206D+01 -0.568236D+00  0.612809D+00
      2   0.346705D+01  0.989317D+00  0.159239D+01
      3  -0.778350D+00 -0.171089D+01 -0.469251D+01
 R(velocity) tensor in inp. orien. for State=          3
                 1             2             3 
      1  -0.635737D+01  0.197543D+01 -0.230245D-01
      2  -0.256307D+01  0.804013D+00  0.302482D+01
      3  -0.488083D+00  0.141034D+00 -0.425190D+01
 1/2[<0|r|b>*<b|rxdel|0> + (<0|rxdel|b>*<b|r|0>)*]
 Rotatory Strengths (R) in cgs (10**-40 erg-esu-cm/Gauss)
       state          XX          YY          ZZ     R(length)     R(au)
         1       143.3660     -0.5147      0.8911     47.9141      0.1016
         2         6.0414     -9.6587    -14.3538     -5.9903     -0.0127
         3         1.3307    -10.2526     -1.5786     -3.5002     -0.0074
  1/2[<0|del|b>*<b|r|0> + (<0|r|b>*<b|del|0>)*] (Au)
       state          X           Y           Z        Dip. S.   Osc.(frdel)
         1        -0.1086     -0.0001     -0.0001      0.1089      0.0726
         2        -0.0012     -0.0053     -0.0010      0.0075      0.0050
         3        -0.0002     -0.0091     -0.0009      0.0103      0.0069
 Ground to excited state transition densities written to RWF  633

 Excitation energies and oscillator strengths:
 
 Excited State   1:      Singlet-A      3.9864 eV  311.02 nm  f=0.0878  <S**2>=0.000
      38 -> 40         0.10835
      39 -> 40        -0.69416
 This state for optimization and/or second-order correction.
 Copying the excited state density for this state as the 1-particle RhoCI density.
 
 Excited State   2:      Singlet-A      4.4894 eV  276.17 nm  f=0.0054  <S**2>=0.000
      37 -> 40         0.13656
      39 -> 41        -0.69217
 
 Excited State   3:      Singlet-A      5.3502 eV  231.74 nm  f=0.0078  <S**2>=0.000
      37 -> 40        -0.53350
      38 -> 41         0.45267
 SavETr:  write IOETrn=   770 NScale= 10 NData=  16 NLR=1 LETran=      62.
          IDoAtm=111111111111111111111
          Differentiating once with respect to electric field.
                with respect to dipole field.
          Differentiating once with respect to nuclear coordinates.
          Keep R1 ints in memory in canonical form, NReq=26300261.
          There are     1 degrees of freedom in the 1st order CPHF.  IDoFFX=0.
 LinEq1:  Iter=  0 NonCon=     1 RMS=3.86D-02 Max=1.48D+00
 AX will form     1 AO Fock derivatives at one time.
 LinEq1:  Iter=  1 NonCon=     1 RMS=2.01D-02 Max=5.92D-01
 LinEq1:  Iter=  2 NonCon=     1 RMS=1.64D-02 Max=3.51D-01
 LinEq1:  Iter=  3 NonCon=     1 RMS=1.24D-02 Max=2.23D-01
 LinEq1:  Iter=  4 NonCon=     1 RMS=1.11D-02 Max=3.45D-01
 LinEq1:  Iter=  5 NonCon=     1 RMS=5.20D-03 Max=5.69D-02
 LinEq1:  Iter=  6 NonCon=     1 RMS=2.45D-03 Max=4.62D-02
 LinEq1:  Iter=  7 NonCon=     1 RMS=1.19D-03 Max=2.35D-02
 LinEq1:  Iter=  8 NonCon=     1 RMS=5.19D-04 Max=9.67D-03
 LinEq1:  Iter=  9 NonCon=     1 RMS=2.03D-04 Max=1.89D-03
 LinEq1:  Iter= 10 NonCon=     1 RMS=6.48D-05 Max=1.26D-03
 LinEq1:  Iter= 11 NonCon=     1 RMS=4.85D-05 Max=1.32D-03
 LinEq1:  Iter= 12 NonCon=     1 RMS=2.20D-05 Max=3.58D-04
 LinEq1:  Iter= 13 NonCon=     1 RMS=1.18D-05 Max=1.75D-04
 LinEq1:  Iter= 14 NonCon=     1 RMS=5.13D-06 Max=5.99D-05
 LinEq1:  Iter= 15 NonCon=     1 RMS=2.10D-06 Max=2.15D-05
 LinEq1:  Iter= 16 NonCon=     1 RMS=4.26D-07 Max=6.69D-06
 LinEq1:  Iter= 17 NonCon=     1 RMS=1.44D-07 Max=2.66D-06
 LinEq1:  Iter= 18 NonCon=     1 RMS=7.26D-08 Max=1.14D-06
 LinEq1:  Iter= 19 NonCon=     1 RMS=2.18D-08 Max=2.31D-07
 LinEq1:  Iter= 20 NonCon=     1 RMS=1.15D-08 Max=1.14D-07
 LinEq1:  Iter= 21 NonCon=     1 RMS=2.95D-09 Max=2.82D-08
 LinEq1:  Iter= 22 NonCon=     1 RMS=6.15D-10 Max=7.90D-09
 LinEq1:  Iter= 23 NonCon=     1 RMS=9.34D-11 Max=1.32D-09
 LinEq1:  Iter= 24 NonCon=     0 RMS=1.50D-11 Max=2.27D-10
 Linear equations converged to 1.000D-10 1.000D-09 after    24 iterations.
 End of Minotr Frequency-dependent properties file   721 does not exist.
 End of Minotr Frequency-dependent properties file   722 does not exist.
 Calling FoFJK, ICntrl=      5127 FMM=F ISym2X=0 I1Cent= 0 IOpClX= 0 NMat=1 NMatS=1 NMatT=0.
 ***** Axes restored to original set *****
 -------------------------------------------------------------------
 Center     Atomic                   Forces (Hartrees/Bohr)
 Number     Number              X              Y              Z
 -------------------------------------------------------------------
      1        6           0.013989277   -0.008096160    0.005159427
      2        6          -0.024457862   -0.003956817   -0.000790105
      3        6           0.073454162   -0.010967126    0.004112712
      4        6          -0.023955441    0.012233047   -0.003104265
      5        6           0.013233324    0.000018033   -0.007308181
      6        6           0.000328761   -0.014411259    0.015874489
      7        1          -0.003727722   -0.005658393    0.000485118
      8        1           0.002348945   -0.005182987   -0.000673137
      9        1           0.002929507    0.004556472    0.001865211
     10        1          -0.001881831    0.007909249    0.000286030
     11        6          -0.103505101    0.011519889   -0.006661110
     12        7           0.053348747   -0.005869071    0.003299928
     13        7           0.023555502    0.049361604   -0.026293334
     14        6          -0.014176542   -0.031581756    0.013274216
     15        1           0.005844090    0.009532789   -0.004901735
     16        1          -0.009506433    0.001497784   -0.001316323
     17        1           0.004128209   -0.000254685    0.007721960
     18        6          -0.013399597   -0.015895419    0.007990962
     19        1           0.004686666   -0.005571409   -0.003665855
     20        1          -0.009872350    0.001544162   -0.001202439
     21        1           0.006635691    0.009272054   -0.004153568
 -------------------------------------------------------------------
 Cartesian Forces:  Max     0.103505101 RMS     0.021083681

 GradGradGradGradGradGradGradGradGradGradGradGradGradGradGradGradGradGrad
 Berny optimization.
 Using GEDIIS/GDIIS optimizer.
 Internal  Forces:  Max     0.053770414 RMS     0.009478158
 Search for a local minimum.
 Step number   2 out of a maximum of  106
 All quantities printed in internal units (Hartrees-Bohrs-Radians)
 Mixed Optimization -- RFO/linear search
 Update second derivatives using D2CorX and points    1    2
 DE= -2.56D-02 DEPred=-2.89D-02 R= 8.86D-01
 SS=  1.41D+00  RLast= 3.00D-01 DXNew= 5.0454D-01 8.9934D-01
 Trust test= 8.86D-01 RLast= 3.00D-01 DXMaxT set to 5.05D-01
 Use linear search instead of GDIIS.
 Linear search step of   0.600 exceeds DXMaxT=   0.505 but not scaled.
 Quartic linear search produced a step of  2.00000.
 Iteration  1 RMS(Cart)=  0.16191702 RMS(Int)=  0.00983328
 Iteration  2 RMS(Cart)=  0.01698605 RMS(Int)=  0.00386148
 Iteration  3 RMS(Cart)=  0.00019639 RMS(Int)=  0.00386005
 Iteration  4 RMS(Cart)=  0.00000214 RMS(Int)=  0.00386005
 Iteration  5 RMS(Cart)=  0.00000001 RMS(Int)=  0.00386005
 Variable       Old X    -DE/DX   Delta X   Delta X   Delta X     New X
                                 (Linear)    (Quad)   (Total)
    R1        2.63300  -0.00996  -0.03053   0.00000  -0.03053   2.60246
    R2        2.67056   0.01047   0.04460   0.00000   0.04461   2.71518
    R3        2.03414   0.00671   0.02427   0.00000   0.02427   2.05841
    R4        2.66823   0.01665   0.03993   0.00000   0.03991   2.70814
    R5        2.03245   0.00571   0.02089   0.00000   0.02089   2.05334
    R6        2.67778   0.01985   0.05904   0.00000   0.05903   2.73681
    R7        2.81637  -0.05058  -0.18762   0.00000  -0.18762   2.62875
    R8        2.63373  -0.01010  -0.02907   0.00000  -0.02906   2.60466
    R9        2.03222   0.00554   0.02042   0.00000   0.02042   2.05264
   R10        2.67042   0.00640   0.04431   0.00000   0.04433   2.71475
   R11        2.03029   0.00802   0.01657   0.00000   0.01657   2.04686
   R12        2.80984   0.00429   0.06389   0.00000   0.06389   2.87373
[...]
   D39       -0.39459   0.00002   0.08842   0.07087   0.15940  -0.23519
   D40        1.70542   0.00023   0.09459   0.07797   0.17270   1.87812
         Item               Value     Threshold  Converged?
 Maximum Force            0.001215     0.000450     NO 
 RMS     Force            0.000298     0.000300     YES
 Maximum Displacement     0.221767     0.001800     NO 
 RMS     Displacement     0.061414     0.001200     NO 
 Predicted change in Energy=-1.624614D-04
 GradGradGradGradGradGradGradGradGradGradGradGradGradGradGradGradGradGrad

                          Input orientation:                          
 ---------------------------------------------------------------------
 Center     Atomic      Atomic             Coordinates (Angstroms)
 Number     Number       Type             X           Y           Z
 ---------------------------------------------------------------------
      1          6           0       -2.381680   -0.538781    0.260323
      2          6           0       -1.038605   -0.789541    0.417622
      3          6           0       -0.057087    0.268651    0.325986
      4          6           0       -0.543675    1.606230    0.060108
      5          6           0       -1.885789    1.862803   -0.097593
      6          6           0       -2.821611    0.793744   -0.000561
      7          1           0       -3.098730   -1.352625    0.334723
      8          1           0       -0.701413   -1.801582    0.613217
      9          1           0        0.171179    2.418372   -0.014066
     10          1           0       -2.223932    2.876344   -0.297959
     11          6           0        1.307750    0.009827    0.488398
     12          7           0        2.469797   -0.210728    0.625563
     13          7           0       -4.240527    1.050299   -0.160612
     14          6           0       -5.041712    1.420121    0.996691
     15          1           0       -4.749501    2.436451    1.299265
     16          1           0       -6.111114    1.394285    0.783440
     17          1           0       -4.780670    0.754757    1.821955
     18          6           0       -4.834200    1.007412   -1.487915
     19          1           0       -4.477176    0.108635   -1.994931
     20          1           0       -5.924030    1.041982   -1.453987
     21          1           0       -4.453993    1.866885   -2.060885
 ---------------------------------------------------------------------
                    Distance matrix (angstroms):
                    1          2          3          4          5
     1  C    0.000000
     2  C    1.375309   0.000000
     3  C    2.461705   1.446217   0.000000
     4  C    2.831858   2.472345   1.447956   0.000000
     5  C    2.478228   2.831624   2.462699   1.375488   0.000000
     6  C    1.427312   2.420905   2.832834   2.419258   1.424102
     7  H    1.087216   2.137300   3.446767   3.918998   3.463683
     8  H    2.131314   1.084519   2.187127   3.456008   3.916084
     9  H    3.916265   3.455523   2.188388   1.084479   2.132311
    10  H    3.464050   3.918644   3.447403   2.136508   1.087085
    11  C    3.736962   2.479794   1.398624   2.481876   3.738395
    12  N    4.876254   3.561902   2.589343   3.563999   4.877870
    13  N    2.481466   3.737870   4.283564   3.744928   2.491771
    14  C    3.384568   4.608991   5.159672   4.598278   3.369462
    15  H    3.941824   4.995505   5.259789   4.462482   3.237458
    16  H    4.233093   5.534734   6.174752   5.618230   4.341555
    17  H    3.141192   4.284864   4.978600   4.667038   3.645925
    18  C    3.385543   4.611579   5.163024   4.600387   3.370137
    19  H    3.145857   4.295451   4.994942   4.683844   3.659547
    20  H    4.240980   5.542994   6.179593   5.617747   4.338311
    21  H    3.933155   4.986429   5.252074   4.456135   3.232678
                    6          7          8          9         10
     6  C    0.000000
     7  H    2.190002   0.000000
     8  H    3.407004   2.454842   0.000000
     9  H    3.405348   5.003437   4.354643   0.000000
    10  H    2.186982   4.364601   5.003129   2.454973   0.000000
    11  C    4.231458   4.614863   2.708047   2.710231   4.616066
    12  N    5.422177   5.691837   3.547893   3.550343   5.693330
    13  N    1.450778   2.706123   4.610571   4.621282   2.723960
    14  C    2.513107   3.449856   5.418913   5.402997   3.425871
    15  H    2.846892   4.244112   5.900729   5.092962   3.020452
    16  H    3.434551   4.101381   6.285492   6.414981   4.298384
    17  H    2.676004   3.079260   4.963492   5.537093   3.941076
    18  C    2.511651   3.450166   5.420806   5.405263   3.423799
    19  H    2.681003   3.076147   4.970689   5.555710   3.951839
    20  H    3.434978   4.112900   6.295627   6.412441   4.288591
    21  H    2.839232   4.235672   5.889849   5.087811   3.016635
                   11         12         13         14         15
    11  C    0.000000
    12  N    1.190719   0.000000
    13  N    5.682181   6.872897   0.000000
    14  C    6.524030   7.695465   1.455341   0.000000
    15  H    6.575432   7.718789   2.076467   1.099939   0.000000
    16  H    7.552703   8.731153   2.123360   1.090763   1.790580
    17  H    6.277114   7.411666   2.075975   1.091747   1.761327
    18  C    6.528748   7.700587   1.454655   2.527184   3.133321
    19  H    6.296194   7.431649   2.075442   3.314890   4.042847
    20  H    7.558892   8.737857   2.122986   2.631976   3.302190
    21  H    6.568500   7.711832   2.079282   3.145438   3.420868
                   16         17         18         19         20
    16  H    0.000000
    17  H    1.804880   0.000000
    18  C    2.634243   3.319931   0.000000
    19  H    3.470158   3.883065   1.091939   0.000000
    20  H    2.272707   3.481604   1.090906   1.804756   0.000000
    21  H    3.325595   4.052159   1.100702   1.759639   1.791591
                   21
    21  H    0.000000
 Stoichiometry    C9H10N2
 Framework group  C1[X(C9H10N2)]
 Deg. of freedom    57
 Full point group                 C1      NOp   1
 Largest Abelian subgroup         C1      NOp   1
 Largest concise Abelian subgroup C1      NOp   1
                         Standard orientation:                         
 ---------------------------------------------------------------------
 Center     Atomic      Atomic             Coordinates (Angstroms)
 Number     Number       Type             X           Y           Z
 ---------------------------------------------------------------------
      1          6           0       -0.176967   -1.245289   -0.002526
      2          6           0        1.198317   -1.237030   -0.001981
      3          6           0        1.945989    0.000924   -0.000777
      4          6           0        1.189089    1.235298   -0.001564
      5          6           0       -0.186397    1.232922   -0.001630
      6          6           0       -0.886833   -0.007019   -0.003155
      7          1           0       -0.714649   -2.190242   -0.002775
      8          1           0        1.740154   -2.176492   -0.004261
      9          1           0        1.724975    2.178123   -0.001188
     10          1           0       -0.729994    2.174332   -0.003713
     11          6           0        3.344604    0.005073    0.001640
     12          7           0        4.535318    0.008584    0.002572
     13          7           0       -2.337498   -0.024729    0.000920
     14          6           0       -3.055652    0.003006    1.266425
     15          1           0       -2.927168    1.003014    1.706132
     16          1           0       -4.118365   -0.209219    1.142469
     17          1           0       -2.581021   -0.707178    1.946333
     18          6           0       -3.060933    0.004315   -1.260753
     19          1           0       -2.601765   -0.720013   -1.936656
     20          1           0       -4.126551   -0.189262   -1.130136
     21          1           0       -2.917654    0.996753   -1.714717
 ---------------------------------------------------------------------
 Rotational constants (GHZ):      3.3640468      0.5389873      0.5161989
 Standard basis: 6-31G (6D, 7F)
 There are   119 symmetry adapted basis functions of A   symmetry.
 Integral buffers will be    262144 words long.
 Raffenetti 2 integral format.
 Two-electron integral symmetry is turned on.
   119 basis functions,   282 primitive gaussians,   119 cartesian basis functions
    39 alpha electrons       39 beta electrons
       nuclear repulsion energy       540.0083808940 Hartrees.
 NAtoms=   21 NActive=   21 NUniq=   21 SFac= 7.50D-01 NAtFMM=   80 NAOKFM=F Big=F
 One-electron integrals computed using PRISM.
 NBasis=   119 RedAO= T  NBF=   119
 NBsUse=   119 1.00D-06 NBFU=   119
 Initial guess read from the read-write file.
 B after Tr=     0.000000    0.000000    0.000000
         Rot=    1.000000    0.000000    0.000000    0.000000 Ang=   0.00 deg.
 Initial guess orbital symmetries:
       Occupied  (A) (A) (A) (A) (A) (A) (A) (A) (A) (A) (A) (A)
                 (A) (A) (A) (A) (A) (A) (A) (A) (A) (A) (A) (A)
                 (A) (A) (A) (A) (A) (A) (A) (A) (A) (A) (A) (A)
                 (A) (A) (A)
       Virtual   (A) (A) (A) (A) (A) (A) (A) (A) (A) (A) (A) (A)
                 (A) (A) (A) (A) (A) (A) (A) (A) (A) (A) (A) (A)
                 (A) (A) (A) (A) (A) (A) (A) (A) (A) (A) (A) (A)
                 (A) (A) (A) (A) (A) (A) (A) (A) (A) (A) (A) (A)
                 (A) (A) (A) (A) (A) (A) (A) (A) (A) (A) (A) (A)
                 (A) (A) (A) (A) (A) (A) (A) (A) (A) (A) (A) (A)
                 (A) (A) (A) (A) (A) (A) (A) (A)
 Harris functional with IExCor=  402 diagonalized for initial guess.
 ExpMin= 1.61D-01 ExpMax= 4.17D+03 ExpMxC= 6.27D+02 IAcc=1 IRadAn=         1 AccDes= 0.00D+00
 HarFok:  IExCor=  402 AccDes= 0.00D+00 IRadAn=         1 IDoV= 1
 ScaDFX=  1.000000  1.000000  1.000000  1.000000
 FoFCou: FMM=F IPFlag=           0 FMFlag=      100000 FMFlg1=           0
         NFxFlg=           0 DoJE=T BraDBF=F KetDBF=T FulRan=T
         Omega=  0.000000  0.000000  1.000000  0.000000  0.000000 ICntrl=     500 IOpCl=  0
         NMat0=    1 NMatS0=    1 NMatT0=    0 NMatD0=    1 NMtDS0=    0 NMtDT0=    0
         I1Cent=           4 NGrid=           0.
 Petite list used in FoFCou.
 Requested convergence on RMS density matrix=1.00D-08 within 128 cycles.
 Requested convergence on MAX density matrix=1.00D-06.
 Requested convergence on             energy=1.00D-06.
 No special actions if energy rises.
 Keep R1 ints in memory in canonical form, NReq=26663852.
 Integral accuracy reduced to 1.0D-05 until final iterations.
 Initial convergence to 1.0D-05 achieved.  Increase integral accuracy.
 SCF Done:  E(RB3LYP) =  -458.313045864     A.U. after   16 cycles
             Convg  =    0.6746D-08             -V/T =  2.0062
 ExpMin= 1.61D-01 ExpMax= 4.17D+03 ExpMxC= 6.27D+02 IAcc=1 IRadAn=         1 AccDes= 0.00D+00
 HarFok:  IExCor=  205 AccDes= 0.00D+00 IRadAn=         1 IDoV=-2
 ScaDFX=  1.000000  1.000000  1.000000  1.000000
 Range of M.O.s used for correlation:    12   119
 NBasis=   119 NAE=    39 NBE=    39 NFC=    11 NFV=     0
 NROrb=    108 NOA=    28 NOB=    28 NVA=    80 NVB=    80

 **** Warning!!: The largest alpha MO coefficient is  0.12185925D+02

 Would need an additional    44600000 words for in-memory AO integral storage.
 Orbital symmetries:
       Occupied  (A) (A) (A) (A) (A) (A) (A) (A) (A) (A) (A) (A)
                 (A) (A) (A) (A) (A) (A) (A) (A) (A) (A) (A) (A)
                 (A) (A) (A) (A) (A) (A) (A) (A) (A) (A) (A) (A)
                 (A) (A) (A)
       Virtual   (A) (A) (A) (A) (A) (A) (A) (A) (A) (A) (A) (A)
                 (A) (A) (A) (A) (A) (A) (A) (A) (A) (A) (A) (A)
                 (A) (A) (A) (A) (A) (A) (A) (A) (A) (A) (A) (A)
                 (A) (A) (A) (A) (A) (A) (A) (A) (A) (A) (A) (A)
                 (A) (A) (A) (A) (A) (A) (A) (A) (A) (A) (A) (A)
                 (A) (A) (A) (A) (A) (A) (A) (A) (A) (A) (A) (A)
                 (A) (A) (A) (A) (A) (A) (A) (A)
 Generating guess from densities on rwf.
 Convergence on wavefunction:    0.000001000000000
 Iteration     1 Dimension     6 NMult     6
 CISAX will form     6 AO SS matrices at one time.
 New state      1 was old state      3
 New state      2 was old state      1
 New state      3 was old state      2
 Iteration     2 Dimension    12 NMult    12
 Iteration     3 Dimension    18 NMult    18
 New state      1 was old state      2
 New state      2 was old state      3
 New state      3 was old state      1
 Iteration     4 Dimension    24 NMult    24
 Iteration     5 Dimension    30 NMult    30
 Iteration     6 Dimension    36 NMult    36
 Iteration     7 Dimension    42 NMult    42
 Iteration     8 Dimension    48 NMult    48
 Iteration     9 Dimension    54 NMult    54
 Iteration    10 Dimension    60 NMult    60
 Iteration    11 Dimension    66 NMult    66
 Iteration    12 Dimension    68 NMult    68
 Iteration    13 Dimension    70 NMult    70
 ***********************************************************************
 Excited states from <AA,BB:AA,BB> singles matrix:
 ***********************************************************************
 
 Ground to excited state transition electric dipole moments (Au):
       state          X           Y           Z        Dip. S.      Osc.
         1        -0.0048     -0.0003     -0.0048      0.0000      0.0000
         2         0.0029     -0.0006     -0.0696      0.0049      0.0005
         3        -0.0002      0.2227      0.0001      0.0496      0.0061
 Ground to excited state transition velocity dipole moments (Au):
       state          X           Y           Z        Dip. S.      Osc.
         1         0.0004      0.0000      0.0010      0.0000      0.0000
         2        -0.0001      0.0001      0.0244      0.0006      0.0028
         3        -0.0003     -0.0337      0.0000      0.0011      0.0041
 Ground to excited state transition magnetic dipole moments (Au):
       state          X           Y           Z
         1        -0.2642      0.0261      0.0007
         2         0.0140      0.2852      0.0008
         3        -0.0007     -0.0005      0.0760
 <0|del|b> * <b|rxdel|0> + <0|del|b> * <b|delr+rdel|0>
 Rotatory Strengths (R) in cgs (10**-40 erg-esu-cm/Gauss)
       state          XX          YY          ZZ    R(velocity)
         1         0.0025     -0.3519     -0.3650     -0.2382
 Total R(velocity) tensor for State=          1
                 1             2             3 
      1   0.245971D-02 -0.504728D-01 -0.189313D-02
      2  -0.177571D-01 -0.351898D+00 -0.239366D-03
      3   0.979891D+00 -0.626282D-01 -0.365020D+00
 R(velocity) tensor in inp. orien. for State=          1
                 1             2             3 
      1  -0.107522D+00 -0.915755D-01  0.353903D-01
      2   0.751273D-01 -0.367485D+00  0.696288D-02
      3   0.968942D+00 -0.256770D+00 -0.239451D+00
         2         0.1059      0.0663      0.0427      0.0716
 Total R(velocity) tensor for State=          2
                 1             2             3 
      1   0.105943D+00  0.136103D+00 -0.825712D-04
      2  -0.333366D-01  0.662906D-01 -0.362033D-03
      3  -0.133351D+01 -0.134197D+02  0.426673D-01
 R(velocity) tensor in inp. orien. for State=          2
                 1             2             3 
      1   0.463516D+00  0.119386D+01 -0.163628D+00
      2  -0.706389D+00 -0.204423D+01  0.287912D+00
      3  -0.395267D+01 -0.125152D+02  0.179561D+01
         3         0.0388     -0.0029      0.0269      0.0209
 Total R(velocity) tensor for State=          3
                 1             2             3 
      1   0.387570D-01 -0.280716D-03 -0.197732D+00
      2  -0.318384D-01 -0.291311D-02  0.102120D+02
      3  -0.615780D-02  0.460242D-04  0.268658D-01
 R(velocity) tensor in inp. orien. for State=          3
                 1             2             3 
      1  -0.127682D+00  0.302937D+00  0.185793D+01
      2  -0.873295D+00  0.163522D+01  0.975545D+01
      3   0.126584D+00 -0.241578D+00 -0.144483D+01
 1/2[<0|r|b>*<b|rxdel|0> + (<0|rxdel|b>*<b|r|0>)*]
 Rotatory Strengths (R) in cgs (10**-40 erg-esu-cm/Gauss)
       state          XX          YY          ZZ     R(length)     R(au)
         1        -0.9056      0.0058      0.0025     -0.2991     -0.0006
         2        -0.0288      0.1216      0.0393      0.0440      0.0001
         3        -0.0001      0.0795     -0.0042      0.0251      0.0001
  1/2[<0|del|b>*<b|r|0> + (<0|r|b>*<b|del|0>)*] (Au)
       state          X           Y           Z        Dip. S.   Osc.(frdel)
         1         0.0000      0.0000      0.0000      0.0000      0.0000
         2         0.0000      0.0000     -0.0017      0.0017      0.0011
         3         0.0000     -0.0075      0.0000      0.0075      0.0050
 Ground to excited state transition densities written to RWF  633

 Excitation energies and oscillator strengths:
 
 Excited State   1:      Singlet-A      2.6529 eV  467.35 nm  f=0.0000  <S**2>=0.000
      39 -> 40         0.70374
 This state for optimization and/or second-order correction.
 Copying the excited state density for this state as the 1-particle RhoCI density.
 
 Excited State   2:      Singlet-A      3.8439 eV  322.55 nm  f=0.0005  <S**2>=0.000
      39 -> 41        -0.70679
 
 Excited State   3:      Singlet-A      5.0455 eV  245.73 nm  f=0.0061  <S**2>=0.000
      37 -> 40        -0.56209
      38 -> 41        -0.42687
 SavETr:  write IOETrn=   770 NScale= 10 NData=  16 NLR=1 LETran=      62.
          IDoAtm=111111111111111111111
          Differentiating once with respect to electric field.
                with respect to dipole field.
          Differentiating once with respect to nuclear coordinates.
          Keep R1 ints in memory in canonical form, NReq=26300261.
          There are     1 degrees of freedom in the 1st order CPHF.  IDoFFX=0.
 LinEq1:  Iter=  0 NonCon=     1 RMS=3.11D-02 Max=7.87D-01
 AX will form     1 AO Fock derivatives at one time.
 LinEq1:  Iter=  1 NonCon=     1 RMS=1.27D-02 Max=2.11D-01
 LinEq1:  Iter=  2 NonCon=     1 RMS=1.20D-02 Max=2.31D-01
 LinEq1:  Iter=  3 NonCon=     1 RMS=1.06D-02 Max=2.86D-01
 LinEq1:  Iter=  4 NonCon=     1 RMS=7.83D-03 Max=1.82D-01
 LinEq1:  Iter=  5 NonCon=     1 RMS=3.48D-03 Max=6.44D-02
 LinEq1:  Iter=  6 NonCon=     1 RMS=1.76D-03 Max=2.56D-02
 LinEq1:  Iter=  7 NonCon=     1 RMS=6.56D-04 Max=8.96D-03
 LinEq1:  Iter=  8 NonCon=     1 RMS=3.16D-04 Max=5.25D-03
 LinEq1:  Iter=  9 NonCon=     1 RMS=1.17D-04 Max=3.10D-03
 LinEq1:  Iter= 10 NonCon=     1 RMS=6.06D-05 Max=1.87D-03
 LinEq1:  Iter= 11 NonCon=     1 RMS=3.85D-05 Max=9.43D-04
 LinEq1:  Iter= 12 NonCon=     1 RMS=7.11D-06 Max=1.30D-04
 LinEq1:  Iter= 13 NonCon=     1 RMS=3.65D-06 Max=1.01D-04
 LinEq1:  Iter= 14 NonCon=     1 RMS=1.98D-06 Max=3.71D-05
 LinEq1:  Iter= 15 NonCon=     1 RMS=5.38D-07 Max=7.52D-06
 LinEq1:  Iter= 16 NonCon=     1 RMS=2.80D-07 Max=3.79D-06
 LinEq1:  Iter= 17 NonCon=     1 RMS=8.21D-08 Max=1.12D-06
 LinEq1:  Iter= 18 NonCon=     1 RMS=5.38D-08 Max=8.02D-07
 LinEq1:  Iter= 19 NonCon=     1 RMS=1.30D-08 Max=1.21D-07
 LinEq1:  Iter= 20 NonCon=     1 RMS=2.84D-09 Max=2.79D-08
 LinEq1:  Iter= 21 NonCon=     1 RMS=5.20D-10 Max=4.51D-09
 LinEq1:  Iter= 22 NonCon=     1 RMS=2.98D-10 Max=2.75D-09
 LinEq1:  Iter= 23 NonCon=     0 RMS=5.60D-11 Max=5.36D-10
 Linear equations converged to 1.000D-10 1.000D-09 after    23 iterations.
 End of Minotr Frequency-dependent properties file   721 does not exist.
 End of Minotr Frequency-dependent properties file   722 does not exist.
