 Entering Link 1 = C:\G09W\l1.exe PID=     15888.
  
 Copyright (c) 1988,1990,1992,1993,1995,1998,2003,2009, Gaussian, Inc.
                  All Rights Reserved.
  
 This is part of the Gaussian(R) 09 program.  It is based on
 the Gaussian(R) 03 system (copyright 2003, Gaussian, Inc.),
 the Gaussian(R) 98 system (copyright 1998, Gaussian, Inc.),
 the Gaussian(R) 94 system (copyright 1995, Gaussian, Inc.),
 the Gaussian 92(TM) system (copyright 1992, Gaussian, Inc.),
 the Gaussian 90(TM) system (copyright 1990, Gaussian, Inc.),
 the Gaussian 88(TM) system (copyright 1988, Gaussian, Inc.),
 the Gaussian 86(TM) system (copyright 1986, Carnegie Mellon
 University), and the Gaussian 82(TM) system (copyright 1983,
 Carnegie Mellon University). Gaussian is a federally registered
 trademark of Gaussian, Inc.
  
 This software contains proprietary and confidential information,
 including trade secrets, belonging to Gaussian, Inc.
  
 This software is provided under written license and may be
 used, copied, transmitted, or stored only in accord with that
 written license.
  
 The following legend is applicable only to US Government
 contracts under FAR:
  
                    RESTRICTED RIGHTS LEGEND
  
 Use, reproduction and disclosure by the US Government is
 subject to restrictions as set forth in subparagraphs (a)
 and (c) of the Commercial Computer Software - Restricted
 Rights clause in FAR 52.227-19.
  
 Gaussian, Inc.
 340 Quinnipiac St., Bldg. 40, Wallingford CT 06492
  
  
 ---------------------------------------------------------------
 Warning -- This program may not be used in any manner that
 competes with the business of Gaussian, Inc. or will provide
 assistance to any competitor of Gaussian, Inc.  The licensee
 of this program is prohibited from giving any competitor of
 Gaussian, Inc. access to this program.  By using this program,
 the user acknowledges that Gaussian, Inc. is engaged in the
 business of creating and licensing software in the field of
 computational chemistry and represents and warrants to the
 licensee that it is not a competitor of Gaussian, Inc. and that
 it will not use this program in any manner prohibited above.
 ---------------------------------------------------------------
  

 Cite this work as:
 Gaussian 09, Revision A.02,
 M. J. Frisch, G. W. Trucks, H. B. Schlegel, G. E. Scuseria, 
 M. A. Robb, J. R. Cheeseman, G. Scalmani, V. Barone, B. Mennucci, 
 G. A. Petersson, H. Nakatsuji, M. Caricato, X. Li, H. P. Hratchian, 
 A. F. Izmaylov, J. Bloino, G. Zheng, J. L. Sonnenberg, M. Hada, 
 M. Ehara, K. Toyota, R. Fukuda, J. Hasegawa, M. Ishida, T. Nakajima, 
 Y. Honda, O. Kitao, H. Nakai, T. Vreven, J. A. Montgomery, Jr., 
 J. E. Peralta, F. Ogliaro, M. Bearpark, J. J. Heyd, E. Brothers, 
 K. N. Kudin, V. N. Staroverov, R. Kobayashi, J. Normand, 
 K. Raghavachari, A. Rendell, J. C. Burant, S. S. Iyengar, J. Tomasi, 
 M. Cossi, N. Rega, J. M. Millam, M. Klene, J. E. Knox, J. B. Cross, 
 V. Bakken, C. Adamo, J. Jaramillo, R. Gomperts, R. E. Stratmann, 
 O. Yazyev, A. J. Austin, R. Cammi, C. Pomelli, J. W. Ochterski, 
 R. L. Martin, K. Morokuma, V. G. Zakrzewski, G. A. Voth, 
 P. Salvador, J. J. Dannenberg, S. Dapprich, A. D. Daniels, 
 O. Farkas, J. B. Foresman, J. V. Ortiz, J. Cioslowski, 
 and D. J. Fox, Gaussian, Inc., Wallingford CT, 2009.
 
 ******************************************
 Gaussian 09:  IA32W-G09RevA.02 11-Jun-2009
                12-Jan-2025 
 ******************************************
 %chk=C:\G09W\Final\start1.chk
 ---------------------------------------
 # opt cam-b3lyp/6-31g geom=connectivity
 ---------------------------------------
 1/14=-1,18=20,19=15,26=3,38=1,57=2/1,3;
 2/9=110,12=2,17=6,18=5,40=1/2;
 3/5=1,6=6,11=2,16=1,25=1,30=1,71=1,74=-40/1,2,3;
 4//1;
 5/5=2,38=5/2;
 6/7=2,8=2,9=2,10=2,28=1/1;
 7//1,2,3,16;
 1/14=-1,18=20,19=15/3(2);
 2/9=110/2;
 99//99;
 2/9=110/2;
 3/5=1,6=6,11=2,16=1,25=1,30=1,71=1,74=-40/1,2,3;
 4/5=5,16=3/1;
 5/5=2,38=5/2;
 7//1,2,3,16;
 1/14=-1,18=20,19=15/3(-5);
 2/9=110/2;
 6/7=2,8=2,9=2,10=2,19=2,28=1/1;
 99/9=1/99;
 -------------------
 Title Card Required
 -------------------
 Symbolic Z-matrix:
 Charge =  0 Multiplicity = 1
 C                    -2.35124  -0.74827   0.08065 
 C                    -0.95695  -0.86462   0.16026 
 C                    -0.16477   0.28313   0.29826 
 C                    -0.76689   1.54724   0.35666 
 C                    -2.16118   1.66359   0.27705 
 C                    -2.95336   0.51583   0.13905 
 H                    -2.95608  -1.62461  -0.02472 
 H                    -0.49722  -1.8298    0.11567 
 H                    -0.16205   2.42357   0.46202 
 H                    -2.62092   2.62876   0.32164 
 C                     1.36741   0.15527   0.38573 
 N                     2.5082    0.06008   0.45086 
 N                    -4.4159    0.63788   0.05555 
 C                    -4.8532    1.81848   0.8144 
 H                    -4.39808   2.69532   0.40342 
 H                    -5.91778   1.90732   0.75362 
 H                    -4.56206   1.71214   1.83852 
 C                    -4.81588   0.78397  -1.35143 
 H                    -4.49757  -0.07537  -1.90379 
 H                    -5.88045   0.87281  -1.41221 
 H                    -4.36076   1.66082  -1.76241 
 

 GradGradGradGradGradGradGradGradGradGradGradGradGradGradGradGradGradGrad
 Berny optimization.
 Initialization pass.
                           ----------------------------
                           !    Initial Parameters    !
                           ! (Angstroms and Degrees)  !
 --------------------------                            --------------------------
 ! Name  Definition              Value          Derivative Info.                !
 --------------------------------------------------------------------------------
 ! R1    R(1,2)                  1.4014         estimate D2E/DX2                !
 ! R2    R(1,6)                  1.4014         estimate D2E/DX2                !
 ! R3    R(1,7)                  1.07           estimate D2E/DX2                !
 ! R4    R(2,3)                  1.4014         estimate D2E/DX2                !
 ! R5    R(2,8)                  1.07           estimate D2E/DX2                !
 ! R6    R(3,4)                  1.4014         estimate D2E/DX2                !
 ! R7    R(3,11)                 1.54           estimate D2E/DX2                !
 ! R8    R(4,5)                  1.4014         estimate D2E/DX2                !
 ! R9    R(4,9)                  1.07           estimate D2E/DX2                !
 ! R10   R(5,6)                  1.4014         estimate D2E/DX2                !
 ! R11   R(5,10)                 1.07           estimate D2E/DX2                !
 ! R12   R(6,13)                 1.47           estimate D2E/DX2                !
 ! R13   R(11,12)                1.1466         estimate D2E/DX2                !
 ! R14   R(13,14)                1.47           estimate D2E/DX2                !
 ! R15   R(13,18)                1.47           estimate D2E/DX2                !
 ! R16   R(14,15)                1.07           estimate D2E/DX2                !
 ! R17   R(14,16)                1.07           estimate D2E/DX2                !
 ! R18   R(14,17)                1.07           estimate D2E/DX2                !
 ! R19   R(18,19)                1.07           estimate D2E/DX2                !
 ! R20   R(18,20)                1.07           estimate D2E/DX2                !
 ! R21   R(18,21)                1.07           estimate D2E/DX2                !
 ! A1    A(2,1,6)              120.0            estimate D2E/DX2                !
 ! A2    A(2,1,7)              120.0            estimate D2E/DX2                !
 ! A3    A(6,1,7)              120.0            estimate D2E/DX2                !
 ! A4    A(1,2,3)              120.0            estimate D2E/DX2                !
 ! A5    A(1,2,8)              120.0            estimate D2E/DX2                !
 ! A6    A(3,2,8)              120.0            estimate D2E/DX2                !
 ! A7    A(2,3,4)              120.0            estimate D2E/DX2                !
 ! A8    A(2,3,11)             120.0            estimate D2E/DX2                !
 ! A9    A(4,3,11)             120.0            estimate D2E/DX2                !
 ! A10   A(3,4,5)              120.0            estimate D2E/DX2                !
 ! A11   A(3,4,9)              120.0            estimate D2E/DX2                !
 ! A12   A(5,4,9)              120.0            estimate D2E/DX2                !
 ! A13   A(4,5,6)              120.0            estimate D2E/DX2                !
 ! A14   A(4,5,10)             120.0            estimate D2E/DX2                !
 ! A15   A(6,5,10)             120.0            estimate D2E/DX2                !
 ! A16   A(1,6,5)              120.0            estimate D2E/DX2                !
 ! A17   A(1,6,13)             120.0            estimate D2E/DX2                !
 ! A18   A(5,6,13)             120.0            estimate D2E/DX2                !
 ! A19   A(6,13,14)            109.4712         estimate D2E/DX2                !
 ! A20   A(6,13,18)            109.4712         estimate D2E/DX2                !
 ! A21   A(14,13,18)           109.4712         estimate D2E/DX2                !
 ! A22   A(13,14,15)           109.4712         estimate D2E/DX2                !
 ! A23   A(13,14,16)           109.4712         estimate D2E/DX2                !
 ! A24   A(13,14,17)           109.4712         estimate D2E/DX2                !
 ! A25   A(15,14,16)           109.4712         estimate D2E/DX2                !
 ! A26   A(15,14,17)           109.4712         estimate D2E/DX2                !
 ! A27   A(16,14,17)           109.4712         estimate D2E/DX2                !
 ! A28   A(13,18,19)           109.4712         estimate D2E/DX2                !
 ! A29   A(13,18,20)           109.4712         estimate D2E/DX2                !
 ! A30   A(13,18,21)           109.4712         estimate D2E/DX2                !
 ! A31   A(19,18,20)           109.4712         estimate D2E/DX2                !
 ! A32   A(19,18,21)           109.4712         estimate D2E/DX2                !
 ! A33   A(20,18,21)           109.4712         estimate D2E/DX2                !
 ! A34   L(3,11,12,4,-1)       179.9999         estimate D2E/DX2                !
 ! A35   L(3,11,12,4,-2)       180.0            estimate D2E/DX2                !
 ! D1    D(6,1,2,3)             -0.0001         estimate D2E/DX2                !
 ! D2    D(6,1,2,8)            179.9999         estimate D2E/DX2                !
 ! D3    D(7,1,2,3)            179.9999         estimate D2E/DX2                !
 ! D4    D(7,1,2,8)             -0.0001         estimate D2E/DX2                !
 ! D5    D(2,1,6,5)              0.0            estimate D2E/DX2                !
 ! D6    D(2,1,6,13)          -180.0            estimate D2E/DX2                !
 ! D7    D(7,1,6,5)           -179.9999         estimate D2E/DX2                !
 ! D8    D(7,1,6,13)             0.0001         estimate D2E/DX2                !
 ! D9    D(1,2,3,4)              0.0001         estimate D2E/DX2                !
 ! D10   D(1,2,3,11)          -179.9998         estimate D2E/DX2                !
 ! D11   D(8,2,3,4)           -179.9999         estimate D2E/DX2                !
 ! D12   D(8,2,3,11)             0.0002         estimate D2E/DX2                !
 ! D13   D(2,3,4,5)             -0.0001         estimate D2E/DX2                !
 ! D14   D(2,3,4,9)            179.9999         estimate D2E/DX2                !
 ! D15   D(11,3,4,5)           179.9998         estimate D2E/DX2                !
 ! D16   D(11,3,4,9)            -0.0001         estimate D2E/DX2                !
 ! D17   D(3,4,5,6)              0.0001         estimate D2E/DX2                !
 ! D18   D(3,4,5,10)           179.9999         estimate D2E/DX2                !
 ! D19   D(9,4,5,6)           -180.0            estimate D2E/DX2                !
 ! D20   D(9,4,5,10)            -0.0001         estimate D2E/DX2                !
 ! D21   D(4,5,6,1)              0.0            estimate D2E/DX2                !
 ! D22   D(4,5,6,13)           180.0            estimate D2E/DX2                !
 ! D23   D(10,5,6,1)          -179.9998         estimate D2E/DX2                !
 ! D24   D(10,5,6,13)            0.0002         estimate D2E/DX2                !
 ! D25   D(1,6,13,14)          150.0            estimate D2E/DX2                !
 ! D26   D(1,6,13,18)          -90.0            estimate D2E/DX2                !
 ! D27   D(5,6,13,14)          -30.0            estimate D2E/DX2                !
 ! D28   D(5,6,13,18)           90.0            estimate D2E/DX2                !
 ! D29   D(6,13,14,15)          60.0            estimate D2E/DX2                !
 ! D30   D(6,13,14,16)         180.0            estimate D2E/DX2                !
 ! D31   D(6,13,14,17)         -60.0            estimate D2E/DX2                !
 ! D32   D(18,13,14,15)        -60.0            estimate D2E/DX2                !
 ! D33   D(18,13,14,16)         60.0            estimate D2E/DX2                !
 ! D34   D(18,13,14,17)        180.0            estimate D2E/DX2                !
 ! D35   D(6,13,18,19)          60.0            estimate D2E/DX2                !
 ! D36   D(6,13,18,20)         180.0            estimate D2E/DX2                !
 ! D37   D(6,13,18,21)         -60.0            estimate D2E/DX2                !
 ! D38   D(14,13,18,19)        180.0            estimate D2E/DX2                !
 ! D39   D(14,13,18,20)        -60.0            estimate D2E/DX2                !
 ! D40   D(14,13,18,21)         60.0            estimate D2E/DX2                !
 --------------------------------------------------------------------------------
 Trust Radius=3.00D-01 FncErr=1.00D-07 GrdErr=1.00D-06
 Number of steps in this run= 106 maximum allowed number of steps= 126.
 GradGradGradGradGradGradGradGradGradGradGradGradGradGradGradGradGradGrad

                          Input orientation:                          
 ---------------------------------------------------------------------
 Center     Atomic      Atomic             Coordinates (Angstroms)
 Number     Number       Type             X           Y           Z
 ---------------------------------------------------------------------
      1          6           0       -2.351237   -0.748272    0.080649
      2          6           0       -0.956946   -0.864623    0.160255
      3          6           0       -0.164774    0.283132    0.298257
      4          6           0       -0.766893    1.547238    0.356655
      5          6           0       -2.161184    1.663589    0.277050
      6          6           0       -2.953356    0.515835    0.139047
      7          1           0       -2.956078   -1.624608   -0.024720
      8          1           0       -0.497215   -1.829796    0.115668
      9          1           0       -0.162052    2.423574    0.462024
     10          1           0       -2.620916    2.628762    0.321640
     11          6           0        1.367414    0.155273    0.385732
     12          7           0        2.508198    0.060078    0.450861
     13          7           0       -4.415899    0.637882    0.055545
     14          6           0       -4.853204    1.818478    0.814398
     15          1           0       -4.398083    2.695324    0.403416
     16          1           0       -5.917776    1.907315    0.753618
     17          1           0       -4.562063    1.712141    1.838522
     18          6           0       -4.815878    0.783971   -1.351428
     19          1           0       -4.497567   -0.075374   -1.903790
     20          1           0       -5.880450    0.872808   -1.412208
     21          1           0       -4.360757    1.660817   -1.762410
 ---------------------------------------------------------------------
                    Distance matrix (angstroms):
                    1          2          3          4          5
     1  C    0.000000
     2  C    1.401400   0.000000
     3  C    2.427296   1.401400   0.000000
     4  C    2.802800   2.427296   1.401400   0.000000
     5  C    2.427296   2.802800   2.427296   1.401400   0.000000
     6  C    1.401400   2.427296   2.802800   2.427296   1.401400
     7  H    1.070000   2.146700   3.396345   3.872800   3.396345
     8  H    2.146700   1.070000   2.146700   3.396345   3.872800
     9  H    3.872800   3.396345   2.146700   1.070000   2.146700
    10  H    3.396345   3.872800   3.396345   2.146700   1.070000
    11  C    3.838989   2.548270   1.540000   2.548270   3.838989
    12  N    4.940100   3.598159   2.686600   3.598158   4.940100
    13  N    2.486942   3.772644   4.272800   3.772644   2.486942
    14  C    3.658747   4.775747   4.960349   4.120805   2.749492
    15  H    4.018968   4.957194   4.873462   3.808652   2.466609
    16  H    4.497246   5.713629   5.995194   5.178690   3.794536
    17  H    3.745864   4.738476   4.873462   4.077553   2.864397
    18  C    3.236212   4.460314   4.960349   4.460314   3.236212
    19  H    2.999587   4.173631   4.873462   4.654075   3.638508
    20  H    4.160753   5.452724   5.995194   5.452724   4.160753
    21  H    3.638508   4.654075   4.873462   4.173631   2.999587
                    6          7          8          9         10
     6  C    0.000000
     7  H    2.146700   0.000000
     8  H    3.396345   2.471400   0.000000
     9  H    3.396345   4.942800   4.280590   0.000000
    10  H    2.146700   4.280590   4.942800   2.471400   0.000000
    11  C    4.342800   4.693509   2.736837   2.736837   4.693509
    12  N    5.489400   5.737826   3.566018   3.566016   5.737825
    13  N    1.470000   2.693766   4.631321   4.631321   2.693767
    14  C    2.400500   4.019707   5.724750   4.743123   2.425383
    15  H    2.628174   4.574329   5.981328   4.245143   1.780293
    16  H    3.331921   4.674606   6.614791   5.786182   3.402408
    17  H    2.628174   4.145449   5.660082   4.664866   2.628531
    18  C    2.400500   3.319678   5.256900   5.256900   3.319679
    19  H    2.628174   2.882224   4.812382   5.535206   3.973250
    20  H    3.331921   4.088295   6.214313   6.214313   4.088297
    21  H    2.628174   3.973248   5.535207   4.812382   2.882227
                   11         12         13         14         15
    11  C    0.000000
    12  N    1.146600   0.000000
    13  N    5.812800   6.959400   0.000000
    14  C    6.453378   7.577227   1.470000   0.000000
    15  H    6.300248   7.392123   2.086720   1.070000   0.000000
    16  H    7.501932   8.631395   2.086720   1.070000   1.747303
    17  H    6.300249   7.392124   2.086720   1.070000   1.747303
    18  C    6.453377   7.577226   1.470000   2.400500   2.628174
    19  H    6.300247   7.392122   2.086720   3.331921   3.606919
    20  H    7.501931   8.631394   2.086720   2.628174   2.969085
    21  H    6.300247   7.392122   2.086720   2.628174   2.400500
                   16         17         18         19         20
    16  H    0.000000
    17  H    1.747303   0.000000
    18  C    2.628174   3.331921   0.000000
    19  H    3.606919   4.147803   1.070000   0.000000
    20  H    2.400500   3.606919   1.070000   1.747303   0.000000
    21  H    2.969085   3.606919   1.070000   1.747303   1.747303
                   21
    21  H    0.000000
 Stoichiometry    C9H10N2
 Framework group  C1[X(C9H10N2)]
 Deg. of freedom    57
 Full point group                 C1      NOp   1
 Largest Abelian subgroup         C1      NOp   1
 Largest concise Abelian subgroup C1      NOp   1
                         Standard orientation:                         
 ---------------------------------------------------------------------
 Center     Atomic      Atomic             Coordinates (Angstroms)
 Number     Number       Type             X           Y           Z
 ---------------------------------------------------------------------
      1          6           0       -0.131413    1.316058   -0.424302
      2          6           0        1.263703    1.215701   -0.337699
      3          6           0        1.858836   -0.008676   -0.005071
      4          6           0        1.058852   -1.132696    0.240951
      5          6           0       -0.336264   -1.032339    0.154347
      6          6           0       -0.931397    0.192038   -0.178280
      7          1           0       -0.585811    2.250897   -0.678269
      8          1           0        1.874509    2.073915   -0.525543
      9          1           0        1.513249   -2.067535    0.494918
     10          1           0       -0.947070   -1.890554    0.342188
     11          6           0        3.391931   -0.118957    0.090101
     12          7           0        4.533390   -0.201068    0.160962
     13          7           0       -2.394806    0.297307   -0.269123
     14          6           0       -2.954302   -0.996910   -0.684896
     15          1           0       -2.694513   -1.745367    0.034285
     16          1           0       -4.019504   -0.920285   -0.751020
     17          1           0       -2.556140   -1.267126   -1.640589
     18          6           0       -2.941813    0.668539    1.043839
     19          1           0       -2.534561    1.610588    1.346476
     20          1           0       -4.007016    0.745163    0.977715
     21          1           0       -2.682024   -0.079919    1.763020
 ---------------------------------------------------------------------
 Rotational constants (GHZ):      3.4202353      0.5605821      0.5164084
 Standard basis: 6-31G (6D, 7F)
 There are   119 symmetry adapted basis functions of A   symmetry.
 Integral buffers will be    262144 words long.
 Raffenetti 2 integral format.
 Two-electron integral symmetry is turned on.
   119 basis functions,   282 primitive gaussians,   119 cartesian basis functions
    39 alpha electrons       39 beta electrons
       nuclear repulsion energy       545.8402255254 Hartrees.
 NAtoms=   21 NActive=   21 NUniq=   21 SFac= 7.50D-01 NAtFMM=   80 NAOKFM=F Big=F
 One-electron integrals computed using PRISM.
 NBasis=   119 RedAO= T  NBF=   119
 NBsUse=   119 1.00D-06 NBFU=   119
 Harris functional with IExCor=20419 diagonalized for initial guess.
 ExpMin= 1.61D-01 ExpMax= 4.17D+03 ExpMxC= 6.27D+02 IAcc=1 IRadAn=         1 AccDes= 0.00D+00
 HarFok:  IExCor=20419 AccDes= 0.00D+00 IRadAn=         1 IDoV= 1
 ScaDFX=  1.000000  1.000000  1.000000  1.000000
 FoFCou: FMM=F IPFlag=           0 FMFlag=      100000 FMFlg1=           0
         NFxFlg=           0 DoJE=T BraDBF=F KetDBF=T FulRan=T
         Omega=  0.000000  0.000000  1.000000  0.000000  0.000000 ICntrl=     500 IOpCl=  0
         NMat0=    1 NMatS0=    1 NMatT0=    0 NMatD0=    1 NMtDS0=    0 NMtDT0=    0
         I1Cent=           4 NGrid=           0.
 Petite list used in FoFCou.
 Initial guess orbital symmetries:
       Occupied  (A) (A) (A) (A) (A) (A) (A) (A) (A) (A) (A) (A)
                 (A) (A) (A) (A) (A) (A) (A) (A) (A) (A) (A) (A)
                 (A) (A) (A) (A) (A) (A) (A) (A) (A) (A) (A) (A)
                 (A) (A) (A)
       Virtual   (A) (A) (A) (A) (A) (A) (A) (A) (A) (A) (A) (A)
                 (A) (A) (A) (A) (A) (A) (A) (A) (A) (A) (A) (A)
                 (A) (A) (A) (A) (A) (A) (A) (A) (A) (A) (A) (A)
                 (A) (A) (A) (A) (A) (A) (A) (A) (A) (A) (A) (A)
                 (A) (A) (A) (A) (A) (A) (A) (A) (A) (A) (A) (A)
                 (A) (A) (A) (A) (A) (A) (A) (A) (A) (A) (A) (A)
                 (A) (A) (A) (A) (A) (A) (A) (A)
 The electronic state of the initial guess is 1-A.
 Requested convergence on RMS density matrix=1.00D-08 within 128 cycles.
 Requested convergence on MAX density matrix=1.00D-06.
 Requested convergence on             energy=1.00D-06.
 No special actions if energy rises.
 Integral accuracy reduced to 1.0D-05 until final iterations.
 FoFJK:  IHMeth= 1 ICntrl=     0 DoSepK=T KAlg= 1 I1Cent= 0 FoldK=F
 FoFJK:  IHMeth= 1 ICntrl=     0 DoSepK=T KAlg= 1 I1Cent= 0 FoldK=F
 FoFJK:  IHMeth= 1 ICntrl=     0 DoSepK=T KAlg= 1 I1Cent= 0 FoldK=F
 FoFJK:  IHMeth= 1 ICntrl=     0 DoSepK=T KAlg= 1 I1Cent= 0 FoldK=F
 FoFJK:  IHMeth= 1 ICntrl=     0 DoSepK=T KAlg= 1 I1Cent= 0 FoldK=F
 FoFJK:  IHMeth= 1 ICntrl=     0 DoSepK=T KAlg= 1 I1Cent= 0 FoldK=F
 FoFJK:  IHMeth= 1 ICntrl=     0 DoSepK=T KAlg= 1 I1Cent= 0 FoldK=F
 Initial convergence to 1.0D-05 achieved.  Increase integral accuracy.
 FoFJK:  IHMeth= 1 ICntrl=     0 DoSepK=T KAlg= 1 I1Cent= 0 FoldK=F
 FoFJK:  IHMeth= 1 ICntrl=     0 DoSepK=T KAlg= 1 I1Cent= 0 FoldK=F
 FoFJK:  IHMeth= 1 ICntrl=     0 DoSepK=T KAlg= 1 I1Cent= 0 FoldK=F
 FoFJK:  IHMeth= 1 ICntrl=     0 DoSepK=T KAlg= 1 I1Cent= 0 FoldK=F
 FoFJK:  IHMeth= 1 ICntrl=     0 DoSepK=T KAlg= 1 I1Cent= 0 FoldK=F
 FoFJK:  IHMeth= 1 ICntrl=     0 DoSepK=T KAlg= 1 I1Cent= 0 FoldK=F
 FoFJK:  IHMeth= 1 ICntrl=     0 DoSepK=T KAlg= 1 I1Cent= 0 FoldK=F
 FoFJK:  IHMeth= 1 ICntrl=     0 DoSepK=T KAlg= 1 I1Cent= 0 FoldK=F
 SCF Done:  E(RCAM-B3LYP) =  -458.047846152     A.U. after   15 cycles
             Convg  =    0.5222D-08             -V/T =  2.0050

 **********************************************************************

            Population analysis using the SCF density.

 **********************************************************************

 Orbital symmetries:
       Occupied  (A) (A) (A) (A) (A) (A) (A) (A) (A) (A) (A) (A)
                 (A) (A) (A) (A) (A) (A) (A) (A) (A) (A) (A) (A)
                 (A) (A) (A) (A) (A) (A) (A) (A) (A) (A) (A) (A)
                 (A) (A) (A)
       Virtual   (A) (A) (A) (A) (A) (A) (A) (A) (A) (A) (A) (A)
                 (A) (A) (A) (A) (A) (A) (A) (A) (A) (A) (A) (A)
                 (A) (A) (A) (A) (A) (A) (A) (A) (A) (A) (A) (A)
                 (A) (A) (A) (A) (A) (A) (A) (A) (A) (A) (A) (A)
                 (A) (A) (A) (A) (A) (A) (A) (A) (A) (A) (A) (A)
                 (A) (A) (A) (A) (A) (A) (A) (A) (A) (A) (A) (A)
                 (A) (A) (A) (A) (A) (A) (A) (A)
 The electronic state is 1-A.
 Alpha  occ. eigenvalues --  -14.41858 -14.41823 -10.32190 -10.31484 -10.30815
 Alpha  occ. eigenvalues --  -10.29057 -10.28930 -10.27992 -10.27887 -10.27760
 Alpha  occ. eigenvalues --  -10.27567  -1.03539  -1.01639  -0.95913  -0.85604
 Alpha  occ. eigenvalues --   -0.85517  -0.80785  -0.75012  -0.71323  -0.68145
 Alpha  occ. eigenvalues --   -0.63833  -0.57843  -0.56766  -0.54759  -0.53611
 Alpha  occ. eigenvalues --   -0.52142  -0.51191  -0.49610  -0.47559  -0.46697
 Alpha  occ. eigenvalues --   -0.44904  -0.44356  -0.43586  -0.41779  -0.41503
 Alpha  occ. eigenvalues --   -0.40728  -0.33051  -0.32862  -0.28249
 Alpha virt. eigenvalues --    0.00706   0.02456   0.09709   0.12561   0.13259
 Alpha virt. eigenvalues --    0.14394   0.16743   0.18673   0.19169   0.20395
 Alpha virt. eigenvalues --    0.20824   0.21460   0.21762   0.23222   0.24389
 Alpha virt. eigenvalues --    0.25065   0.28098   0.29281   0.30907   0.35353
 Alpha virt. eigenvalues --    0.36310   0.38172   0.40376   0.45421   0.52841
 Alpha virt. eigenvalues --    0.55368   0.56141   0.58781   0.59335   0.60159
 Alpha virt. eigenvalues --    0.62045   0.62334   0.63679   0.64831   0.65461
 Alpha virt. eigenvalues --    0.66125   0.68477   0.69771   0.70030   0.71108
 Alpha virt. eigenvalues --    0.73837   0.74063   0.75846   0.77038   0.78834
 Alpha virt. eigenvalues --    0.82768   0.85409   0.86722   0.89761   0.90033
 Alpha virt. eigenvalues --    0.91317   0.92280   0.95010   0.96263   0.97142
 Alpha virt. eigenvalues --    0.97847   1.00570   1.00971   1.02598   1.03763
 Alpha virt. eigenvalues --    1.05394   1.07439   1.08011   1.09436   1.12954
 Alpha virt. eigenvalues --    1.16126   1.19852   1.21201   1.22693   1.25363
 Alpha virt. eigenvalues --    1.30443   1.32186   1.38857   1.48909   1.53091
 Alpha virt. eigenvalues --    1.54221   1.65630   1.78024   1.88241   2.01941
          Condensed to atoms (all electrons):
              1          2          3          4          5          6
     1  C    4.959302   0.504407  -0.049986  -0.034931  -0.088972   0.546671
     2  C    0.504407   4.915063   0.521965  -0.053144  -0.037080  -0.042322
     3  C   -0.049986   0.521965   4.917319   0.530135  -0.049484  -0.022612
     4  C   -0.034931  -0.053144   0.530135   4.919951   0.465458  -0.027536
     5  C   -0.088972  -0.037080  -0.049484   0.465458   5.122792   0.454140
     6  C    0.546671  -0.042322  -0.022612  -0.027536   0.454140   4.856792
     7  H    0.351630  -0.031833   0.003855   0.000227   0.006040  -0.027129
     8  H   -0.024704   0.359264  -0.035658   0.003692   0.000620   0.003555
     9  H    0.000648   0.003666  -0.033847   0.358169  -0.024427   0.002495
    10  H    0.002925   0.000808   0.003578  -0.024588   0.367467  -0.047443
    11  C    0.004574  -0.021727   0.182561  -0.020975   0.005399   0.000771
    12  N   -0.000008   0.000521  -0.037134   0.000486  -0.000008   0.000007
    13  N   -0.053387   0.003959   0.000131   0.006491  -0.092147   0.278387
    14  C    0.003783  -0.000139  -0.000050   0.001015  -0.004233  -0.065371
    15  H   -0.000800   0.000043  -0.000014  -0.000101   0.001867  -0.015157
    16  H   -0.000078   0.000001   0.000001  -0.000016   0.000231   0.006744
    17  H    0.000554  -0.000036  -0.000005  -0.000061  -0.000740  -0.000618
    18  C   -0.008082  -0.000089   0.000013   0.000015  -0.000411  -0.067753
    19  H    0.003789  -0.000153  -0.000006   0.000041  -0.000812  -0.002955
    20  H    0.000224  -0.000001   0.000000   0.000006  -0.000318   0.006423
    21  H   -0.000592   0.000078  -0.000022  -0.000524   0.008305  -0.003471
              7          8          9         10         11         12
     1  C    0.351630  -0.024704   0.000648   0.002925   0.004574  -0.000008
     2  C   -0.031833   0.359264   0.003666   0.000808  -0.021727   0.000521
     3  C    0.003855  -0.035658  -0.033847   0.003578   0.182561  -0.037134
     4  C    0.000227   0.003692   0.358169  -0.024588  -0.020975   0.000486
     5  C    0.006040   0.000620  -0.024427   0.367467   0.005399  -0.000008
     6  C   -0.027129   0.003555   0.002495  -0.047443   0.000771   0.000007
     7  H    0.547200  -0.003591   0.000011  -0.000140  -0.000157   0.000000
     8  H   -0.003591   0.537715  -0.000158   0.000011  -0.004447   0.000172
     9  H    0.000011  -0.000158   0.537803  -0.003097  -0.004239   0.000186
    10  H   -0.000140   0.000011  -0.003097   0.560657  -0.000179   0.000000
    11  C   -0.000157  -0.004447  -0.004239  -0.000179   4.949568   0.936936
    12  N    0.000000   0.000172   0.000186   0.000000   0.936936   6.304413
    13  N    0.000455  -0.000094  -0.000104  -0.011502  -0.000001   0.000000
    14  C    0.000089   0.000002   0.000021  -0.001300   0.000000   0.000000
    15  H    0.000041   0.000000   0.000034   0.005183   0.000000   0.000000
    16  H   -0.000011   0.000000   0.000000   0.000023   0.000000   0.000000
    17  H   -0.000037   0.000000  -0.000005  -0.000219   0.000000   0.000000
    18  C    0.000250   0.000002   0.000000  -0.000094   0.000000   0.000000
    19  H    0.000210   0.000003   0.000000  -0.000033   0.000000   0.000000
    20  H   -0.000074   0.000000   0.000000  -0.000041   0.000000   0.000000
    21  H    0.000194   0.000000   0.000009   0.001226   0.000000   0.000000
             13         14         15         16         17         18
     1  C   -0.053387   0.003783  -0.000800  -0.000078   0.000554  -0.008082
     2  C    0.003959  -0.000139   0.000043   0.000001  -0.000036  -0.000089
     3  C    0.000131  -0.000050  -0.000014   0.000001  -0.000005   0.000013
     4  C    0.006491   0.001015  -0.000101  -0.000016  -0.000061   0.000015
     5  C   -0.092147  -0.004233   0.001867   0.000231  -0.000740  -0.000411
     6  C    0.278387  -0.065371  -0.015157   0.006744  -0.000618  -0.067753
     7  H    0.000455   0.000089   0.000041  -0.000011  -0.000037   0.000250
     8  H   -0.000094   0.000002   0.000000   0.000000   0.000000   0.000002
     9  H   -0.000104   0.000021   0.000034   0.000000  -0.000005   0.000000
    10  H   -0.011502  -0.001300   0.005183   0.000023  -0.000219  -0.000094
    11  C   -0.000001   0.000000   0.000000   0.000000   0.000000   0.000000
    12  N    0.000000   0.000000   0.000000   0.000000   0.000000   0.000000
    13  N    7.068383   0.278085  -0.068496  -0.037380  -0.037912   0.285847
    14  C    0.278085   4.997419   0.363312   0.382274   0.387550  -0.071490
    15  H   -0.068496   0.363312   0.666990  -0.040397  -0.044547  -0.003882
    16  H   -0.037380   0.382274  -0.040397   0.560179  -0.022083  -0.003654
    17  H   -0.037912   0.387550  -0.044547  -0.022083   0.546454   0.005800
    18  C    0.285847  -0.071490  -0.003882  -0.003654   0.005800   5.002915
    19  H   -0.038310   0.006038  -0.000456   0.000135  -0.000229   0.383594
    20  H   -0.037545  -0.003091  -0.001900   0.004220   0.000131   0.380264
    21  H   -0.074237  -0.005212   0.016208  -0.001757  -0.000444   0.366736
             19         20         21
     1  C    0.003789   0.000224  -0.000592
     2  C   -0.000153  -0.000001   0.000078
     3  C   -0.000006   0.000000  -0.000022
     4  C    0.000041   0.000006  -0.000524
     5  C   -0.000812  -0.000318   0.008305
     6  C   -0.002955   0.006423  -0.003471
     7  H    0.000210  -0.000074   0.000194
     8  H    0.000003   0.000000   0.000000
     9  H    0.000000   0.000000   0.000009
    10  H   -0.000033  -0.000041   0.001226
    11  C    0.000000   0.000000   0.000000
    12  N    0.000000   0.000000   0.000000
    13  N   -0.038310  -0.037545  -0.074237
    14  C    0.006038  -0.003091  -0.005212
    15  H   -0.000456  -0.001900   0.016208
    16  H    0.000135   0.004220  -0.001757
    17  H   -0.000229   0.000131  -0.000444
    18  C    0.383594   0.380264   0.366736
    19  H    0.552624  -0.022490  -0.039666
    20  H   -0.022490   0.561777  -0.042443
    21  H   -0.039666  -0.042443   0.650189
 Mulliken atomic charges:
              1
     1  C   -0.116966
     2  C   -0.123250
     3  C    0.069260
     4  C   -0.123809
     5  C   -0.133687
     6  C    0.166383
     7  H    0.152769
     8  H    0.163615
     9  H    0.162836
    10  H    0.146758
    11  C   -0.028085
    12  N   -0.205570
    13  N   -0.470622
    14  C   -0.268701
    15  H    0.122071
    16  H    0.151571
    17  H    0.166447
    18  C   -0.269980
    19  H    0.158678
    20  H    0.154858
    21  H    0.125425
 Sum of Mulliken atomic charges =   0.00000
 Mulliken charges with hydrogens summed into heavy atoms:
              1
     1  C    0.035803
     2  C    0.040365
     3  C    0.069260
     4  C    0.039026
     5  C    0.013071
     6  C    0.166383
    11  C   -0.028085
    12  N   -0.205570
    13  N   -0.470622
    14  C    0.171388
    18  C    0.168980
 Sum of Mulliken charges with hydrogens summed into heavy atoms =   0.00000
 Electronic spatial extent (au):  <R**2>=           2152.6279
 Charge=              0.0000 electrons
 Dipole moment (field-independent basis, Debye):
    X=             -5.0005    Y=             -0.4267    Z=              0.5711  Tot=              5.0511
 Quadrupole moment (field-independent basis, Debye-Ang):
   XX=            -85.6949   YY=            -58.8257   ZZ=            -66.4688
   XY=              4.1145   XZ=             -3.4680   YZ=              0.0223
 Traceless Quadrupole moment (field-independent basis, Debye-Ang):
   XX=            -15.3651   YY=             11.5041   ZZ=              3.8610
   XY=              4.1145   XZ=             -3.4680   YZ=              0.0223
 Octapole moment (field-independent basis, Debye-Ang**2):
  XXX=           -166.8340  YYY=              2.7238  ZZZ=             -0.1520  XYY=              1.2069
  XXY=              1.8789  XXZ=              0.3229  XZZ=             -4.1460  YZZ=             -0.6801
  YYZ=              0.1256  XYZ=             -6.6022
 Hexadecapole moment (field-independent basis, Debye-Ang**3):
 XXXX=          -3019.5345 YYYY=           -362.8155 ZZZZ=           -176.7159 XXXY=             55.6065
 XXXZ=            -45.9356 YYYX=             -0.4433 YYYZ=             -9.2827 ZZZX=              1.7093
 ZZZY=              4.4693 XXYY=           -446.0277 XXZZ=           -422.8471 YYZZ=            -94.5084
 XXYZ=             12.7653 YYXZ=             -2.3440 ZZXY=              1.7964
 N-N= 5.458402255254D+02 E-N=-2.154774472559D+03  KE= 4.557517701795D+02
 Calling FoFJK, ICntrl=      2127 FMM=F ISym2X=0 I1Cent= 0 IOpClX= 0 NMat=1 NMatS=1 NMatT=0.
 FoFJK:  IHMeth= 1 ICntrl=  2127 DoSepK=T KAlg= 1 I1Cent= 0 FoldK=F
 ***** Axes restored to original set *****
 -------------------------------------------------------------------
 Center     Atomic                   Forces (Hartrees/Bohr)
 Number     Number              X              Y              Z
 -------------------------------------------------------------------
      1        6           0.014786715    0.012639572   -0.000509182
      2        6          -0.009921632    0.010380768   -0.001028815
      3        6           0.047259783   -0.002574797    0.002793786
      4        6          -0.009530256   -0.009298047   -0.001070564
      5        6           0.018320828   -0.016823279   -0.000374419
      6        6          -0.011646929   -0.003512439    0.003455976
      7        1          -0.006960918   -0.006610565    0.000163636
      8        1           0.004214190   -0.008514551   -0.000052306
      9        1           0.005832897    0.007730817    0.000836956
     10        1           0.002723492    0.007139665    0.000461779
     11        6          -0.109045304    0.009133938   -0.005908532
     12        7           0.050228310   -0.004172257    0.002782149
     13        7           0.024406656    0.004307178    0.004104537
     14        6          -0.002523816   -0.017876834   -0.004988484
     15        1          -0.001357116    0.021538462   -0.003774613
     16        1          -0.015085810    0.000698050   -0.000504842
     17        1           0.003132640   -0.000422868    0.014488919
     18        6           0.000501405   -0.009997487    0.013373164
     19        1           0.003386832   -0.011362535   -0.009201683
     20        1          -0.015560040    0.000127728   -0.001402460
     21        1           0.006838075    0.017469480   -0.013645003
 -------------------------------------------------------------------
 Cartesian Forces:  Max     0.109045304 RMS     0.018636233

 GradGradGradGradGradGradGradGradGradGradGradGradGradGradGradGradGradGrad
 Berny optimization.
 Internal  Forces:  Max     0.059108760 RMS     0.011132989
 Search for a local minimum.
 Step number   1 out of a maximum of  106
 All quantities printed in internal units (Hartrees-Bohrs-Radians)
 Mixed Optimization -- RFO/linear search
 Second derivative matrix not updated -- first step.
     Eigenvalues ---    0.00766   0.00766   0.00766   0.01669   0.02070
     Eigenvalues ---    0.02070   0.02070   0.02070   0.02070   0.02070
     Eigenvalues ---    0.02070   0.02070   0.03454   0.05044   0.05044
     Eigenvalues ---    0.07537   0.07537   0.07537   0.07537   0.16000
     Eigenvalues ---    0.16000   0.16000   0.16000   0.16000   0.16000
     Eigenvalues ---    0.16000   0.16000   0.16000   0.16000   0.16276
     Eigenvalues ---    0.17820   0.22000   0.22981   0.24000   0.25000
     Eigenvalues ---    0.25000   0.28519   0.35740   0.35740   0.35740
     Eigenvalues ---    0.37230   0.37230   0.37230   0.37230   0.37230
     Eigenvalues ---    0.37230   0.37230   0.37230   0.37230   0.37230
     Eigenvalues ---    0.41268   0.41640   0.45389   0.45389   0.45389
     Eigenvalues ---    0.45389   1.369801000.000001000.000001000.00000
     Eigenvalues --- 1000.000001000.000001000.000001000.000001000.00000
     Eigenvalues --- 1000.000001000.000001000.000001000.000001000.00000
     Eigenvalues --- 1000.000001000.000001000.000001000.000001000.00000
     Eigenvalues --- 1000.000001000.000001000.000001000.000001000.00000
     Eigenvalues --- 1000.000001000.000001000.000001000.000001000.00000
     Eigenvalues --- 1000.000001000.000001000.000001000.000001000.00000
     Eigenvalues --- 1000.000001000.000001000.000001000.000001000.00000
     Eigenvalues --- 1000.00000
 RFO step:  Lambda=-3.86024639D-02 EMin= 7.65814493D-03
 Linear search not attempted -- first point.
 Maximum step size (   0.300) exceeded in Quadratic search.
    -- Step size scaled by   0.635
 Iteration  1 RMS(Cart)=  0.10153256 RMS(Int)=  0.00461150
 Iteration  2 RMS(Cart)=  0.00702746 RMS(Int)=  0.00056577
 Iteration  3 RMS(Cart)=  0.00003823 RMS(Int)=  0.00056515
 Iteration  4 RMS(Cart)=  0.00000002 RMS(Int)=  0.00056515
 Variable       Old X    -DE/DX   Delta X   Delta X   Delta X     New X
                                 (Linear)    (Quad)   (Total)
    R1        2.64826  -0.01159   0.00000  -0.01514  -0.01513   2.63313
    R2        2.64826  -0.00498   0.00000  -0.00631  -0.00630   2.64196
    R3        2.02201   0.00933   0.00000   0.01442   0.01442   2.03643
    R4        2.64826  -0.00686   0.00000  -0.00915  -0.00916   2.63910
    R5        2.02201   0.00949   0.00000   0.01467   0.01467   2.03667
    R6        2.64826  -0.00827   0.00000  -0.01076  -0.01077   2.63749
    R7        2.91018  -0.05911   0.00000  -0.11588  -0.11588   2.79430
    R8        2.64826  -0.00959   0.00000  -0.01215  -0.01216   2.63610
    R9        2.02201   0.00971   0.00000   0.01500   0.01500   2.03701
   R10        2.64826   0.00281   0.00000   0.00394   0.00394   2.65220
   R11        2.02201   0.00529   0.00000   0.00817   0.00817   2.03018
   R12        2.77790  -0.00326   0.00000  -0.00523  -0.00523   2.77267
   R13        2.16676   0.05048   0.00000   0.02275   0.02275   2.18951
   R14        2.77790   0.01057   0.00000   0.01695   0.01695   2.79485
   R15        2.77790   0.01135   0.00000   0.01819   0.01819   2.79609
   R16        2.02201   0.01853   0.00000   0.02862   0.02862   2.05062
   R17        2.02201   0.01509   0.00000   0.02332   0.02332   2.04533
   R18        2.02201   0.01476   0.00000   0.02281   0.02281   2.04481
   R19        2.02201   0.01488   0.00000   0.02299   0.02299   2.04499
   R20        2.02201   0.01557   0.00000   0.02406   0.02406   2.04606
   R21        2.02201   0.02247   0.00000   0.03471   0.03471   2.05672
    A1        2.09440   0.00508   0.00000   0.01212   0.01214   2.10653
    A2        2.09440  -0.00055   0.00000   0.00030   0.00028   2.09468
    A3        2.09440  -0.00453   0.00000  -0.01241  -0.01243   2.08197
    A4        2.09440  -0.00200   0.00000  -0.00607  -0.00607   2.08833
    A5        2.09440   0.00117   0.00000   0.00358   0.00358   2.09797
    A6        2.09440   0.00083   0.00000   0.00249   0.00248   2.09688
    A7        2.09440   0.00279   0.00000   0.00525   0.00524   2.09963
    A8        2.09440  -0.00130   0.00000  -0.00242  -0.00241   2.09199
    A9        2.09440  -0.00149   0.00000  -0.00283  -0.00283   2.09157
   A10        2.09440  -0.00129   0.00000  -0.00315  -0.00317   2.09123
   A11        2.09440   0.00023   0.00000   0.00024   0.00025   2.09465
   A12        2.09440   0.00106   0.00000   0.00290   0.00291   2.09731
   A13        2.09440   0.00211   0.00000   0.00601   0.00601   2.10040
   A14        2.09440  -0.00665   0.00000  -0.02087  -0.02087   2.07352
   A15        2.09440   0.00454   0.00000   0.01487   0.01487   2.10926
   A16        2.09440  -0.00669   0.00000  -0.01416  -0.01415   2.08024
   A17        2.09440  -0.02193   0.00000  -0.04852  -0.04854   2.04586
   A18        2.09440   0.02862   0.00000   0.06267   0.06264   2.15704
   A19        1.91063   0.02085   0.00000   0.09182   0.09064   2.00127
   A20        1.91063  -0.00335   0.00000   0.01551   0.01222   1.92285
   A21        1.91063  -0.00417   0.00000   0.01315   0.01007   1.92070
   A22        1.91063   0.01548   0.00000   0.05260   0.05238   1.96302
   A23        1.91063  -0.00448   0.00000  -0.01856  -0.01851   1.89212
   A24        1.91063   0.00040   0.00000   0.00239   0.00200   1.91264
   A25        1.91063  -0.00667   0.00000  -0.02354  -0.02334   1.88730
   A26        1.91063  -0.00347   0.00000  -0.00260  -0.00319   1.90744
   A27        1.91063  -0.00126   0.00000  -0.01029  -0.01040   1.90023
   A28        1.91063   0.00113   0.00000   0.00288   0.00280   1.91343
   A29        1.91063  -0.00146   0.00000  -0.00588  -0.00590   1.90473
   A30        1.91063   0.00852   0.00000   0.02918   0.02910   1.93973
   A31        1.91063  -0.00188   0.00000  -0.00989  -0.00991   1.90072
   A32        1.91063  -0.00356   0.00000  -0.00897  -0.00911   1.90152
   A33        1.91063  -0.00275   0.00000  -0.00732  -0.00735   1.90329
   A34        3.14159  -0.00001   0.00000  -0.00009  -0.00009   3.14150
   A35        3.14159   0.00009   0.00000   0.00064   0.00064   3.14223
    D1        0.00000   0.00004   0.00000   0.00033   0.00038   0.00038
    D2        3.14159  -0.00034   0.00000  -0.00368  -0.00368   3.13791
    D3        3.14159   0.00048   0.00000   0.00508   0.00520  -3.13639
    D4        0.00000   0.00010   0.00000   0.00107   0.00114   0.00114
    D5        0.00000   0.00022   0.00000   0.00272   0.00265   0.00265
    D6       -3.14159  -0.00069   0.00000  -0.00778  -0.00744   3.13415
    D7       -3.14159  -0.00022   0.00000  -0.00203  -0.00213   3.13946
    D8        0.00000  -0.00113   0.00000  -0.01253  -0.01223  -0.01223
    D9        0.00000  -0.00019   0.00000  -0.00211  -0.00213  -0.00213
   D10       -3.14159  -0.00022   0.00000  -0.00235  -0.00237   3.13922
   D11       -3.14159   0.00019   0.00000   0.00190   0.00193  -3.13966
   D12        0.00000   0.00016   0.00000   0.00166   0.00169   0.00169
   D13        0.00000   0.00007   0.00000   0.00084   0.00081   0.00081
   D14        3.14159   0.00021   0.00000   0.00231   0.00234  -3.13925
   D15        3.14159   0.00010   0.00000   0.00108   0.00105  -3.14054
   D16        0.00000   0.00024   0.00000   0.00255   0.00258   0.00258
   D17        0.00000   0.00019   0.00000   0.00221   0.00227   0.00227
   D18        3.14159   0.00030   0.00000   0.00330   0.00341  -3.13819
   D19       -3.14159   0.00006   0.00000   0.00073   0.00074  -3.14086
   D20        0.00000   0.00017   0.00000   0.00182   0.00187   0.00187
   D21        0.00000  -0.00034   0.00000  -0.00399  -0.00398  -0.00398
   D22        3.14159   0.00057   0.00000   0.00651   0.00680  -3.13479
   D23       -3.14159  -0.00045   0.00000  -0.00508  -0.00514   3.13646
   D24        0.00000   0.00047   0.00000   0.00542   0.00564   0.00564
   D25        2.61799  -0.00213   0.00000  -0.03261  -0.03345   2.58455
   D26       -1.57080   0.00349   0.00000   0.04922   0.05014  -1.52066
   D27       -0.52360  -0.00304   0.00000  -0.04310  -0.04403  -0.56763
   D28        1.57080   0.00257   0.00000   0.03872   0.03956   1.61036
   D29        1.04720   0.00728   0.00000   0.08079   0.08183   1.12903
   D30        3.14159   0.00585   0.00000   0.07280   0.07340  -3.06820
   D31       -1.04720   0.00180   0.00000   0.05030   0.05084  -0.99636
   D32       -1.04720   0.00116   0.00000  -0.00248  -0.00289  -1.05008
   D33        1.04720  -0.00027   0.00000  -0.01047  -0.01132   1.03588
   D34        3.14159  -0.00431   0.00000  -0.03297  -0.03388   3.10771
   D35        1.04720  -0.00946   0.00000  -0.06225  -0.06173   0.98547
   D36        3.14159  -0.01197   0.00000  -0.07620  -0.07573   3.06586
   D37       -1.04720  -0.01102   0.00000  -0.07090  -0.07047  -1.11767
   D38       -3.14159   0.01147   0.00000   0.06775   0.06733  -3.07426
   D39       -1.04720   0.00897   0.00000   0.05380   0.05333  -0.99387
   D40        1.04720   0.00992   0.00000   0.05910   0.05858   1.10578
         Item               Value     Threshold  Converged?
 Maximum Force            0.059109     0.000450     NO 
 RMS     Force            0.011133     0.000300     NO 
 Maximum Displacement     0.489086     0.001800     NO 
 RMS     Displacement     0.104761     0.001200     NO 
 Predicted change in Energy=-1.850460D-02
 GradGradGradGradGradGradGradGradGradGradGradGradGradGradGradGradGradGrad

                          Input orientation:                          
 ---------------------------------------------------------------------
 Center     Atomic      Atomic             Coordinates (Angstroms)
 Number     Number       Type             X           Y           Z
 ---------------------------------------------------------------------
      1          6           0       -2.338185   -0.678627    0.085722
      2          6           0       -0.957035   -0.850123    0.153205
      3          6           0       -0.128012    0.265660    0.287784
      4          6           0       -0.677066    1.547217    0.352040
      5          6           0       -2.060334    1.713514    0.282428
      6          6           0       -2.902761    0.598714    0.150868
      7          1           0       -2.983647   -1.535868   -0.013299
      8          1           0       -0.530442   -1.838721    0.105627
      9          1           0       -0.032750    2.405389    0.453758
     10          1           0       -2.465252    2.707456    0.330285
     11          6           0        1.338129    0.088786    0.362874
     12          7           0        2.486978   -0.049671    0.421360
     13          7           0       -4.364399    0.691693    0.062897
     14          6           0       -4.958873    1.809311    0.827673
     15          1           0       -4.656896    2.779490    0.446755
     16          1           0       -6.036405    1.738964    0.753942
     17          1           0       -4.673226    1.729186    1.868278
     18          6           0       -4.786670    0.764952   -1.353302
     19          1           0       -4.404060   -0.092331   -1.891592
     20          1           0       -5.868262    0.755630   -1.402057
     21          1           0       -4.417551    1.672923   -1.826463
 ---------------------------------------------------------------------
                    Distance matrix (angstroms):
                    1          2          3          4          5
     1  C    0.000000
     2  C    1.393392   0.000000
     3  C    2.411923   1.396553   0.000000
     4  C    2.790094   2.421809   1.395700   0.000000
     5  C    2.416244   2.793959   2.414576   1.394966   0.000000
     6  C    1.398066   2.425899   2.798018   2.427725   1.403486
     7  H    1.077630   2.145955   3.389808   3.867712   3.390935
     8  H    2.148057   1.077761   2.150243   3.398057   3.871718
     9  H    3.868027   3.397498   2.148270   1.077938   2.149219
    10  H    3.397281   3.868133   3.380365   2.131722   1.074323
    11  C    3.765770   2.488632   1.478680   2.487599   3.767727
    12  N    4.877544   3.545963   2.637319   3.544860   4.879156
    13  N    2.446189   3.741054   4.263690   3.796308   2.530026
    14  C    3.688947   4.852031   5.100153   4.316108   2.950932
    15  H    4.179155   5.191266   5.182220   4.167315   2.811662
    16  H    4.468567   5.732736   6.107130   5.377806   4.004012
    17  H    3.798353   4.837808   5.029795   4.278011   3.056529
    18  C    3.185873   4.420875   4.964429   4.517630   3.317875
    19  H    2.919135   4.078900   4.812735   4.648923   3.671579
    20  H    4.090479   5.396057   6.003840   5.536423   4.272628
    21  H    3.675595   4.718053   4.985035   4.330463   3.163154
                    6          7          8          9         10
     6  C    0.000000
     7  H    2.142412   0.000000
     8  H    3.401622   2.474687   0.000000
     9  H    3.404818   4.945648   4.287348   0.000000
    10  H    2.161111   4.288657   4.945876   2.454294   0.000000
    11  C    4.276696   4.632359   2.696853   2.693365   4.617814
    12  N    5.435334   5.685547   3.522103   3.518152   5.668741
    13  N    1.467232   2.621891   4.593914   4.674689   2.782365
    14  C    2.480163   3.974792   5.782775   4.976125   2.696703
    15  H    2.814307   4.651207   6.202569   4.639260   2.195918
    16  H    3.388745   4.542303   6.598164   6.047984   3.724324
    17  H    2.713302   4.129841   5.744524   4.898177   2.863142
    18  C    2.416459   3.215630   5.198372   5.343806   3.463636
    19  H    2.627372   2.762129   4.695070   5.554064   4.066266
    20  H    3.351178   3.937082   6.123405   6.341842   4.288486
    21  H    2.712628   3.954742   5.583389   4.996238   3.087603
                   11         12         13         14         15
    11  C    0.000000
    12  N    1.158639   0.000000
    13  N    5.742153   6.900688   0.000000
    14  C    6.544348   7.685155   1.478970   0.000000
    15  H    6.571701   7.683732   2.142848   1.085144   0.000000
    16  H    7.567019   8.715382   2.090436   1.082340   1.755022
    17  H    6.410424   7.518405   2.105033   1.082068   1.767522
    18  C    6.396533   7.531202   1.479628   2.424251   2.704702
    19  H    6.171560   7.268973   2.106251   3.364292   3.712027
    20  H    7.449277   8.589726   2.100424   2.628484   2.996919
    21  H    6.358502   7.462745   2.129629   2.712207   2.539546
                   16         17         18         19         20
    16  H    0.000000
    17  H    1.760709   0.000000
    18  C    2.636477   3.364698   0.000000
    19  H    3.607913   4.186525   1.082165   0.000000
    20  H    2.375616   3.615386   1.082730   1.761411   0.000000
    21  H    3.046890   3.704004   1.088367   1.766507   1.768080
                   21
    21  H    0.000000
 Stoichiometry    C9H10N2
 Framework group  C1[X(C9H10N2)]
 Deg. of freedom    57
 Full point group                 C1      NOp   1
 Largest Abelian subgroup         C1      NOp   1
 Largest concise Abelian subgroup C1      NOp   1
                         Standard orientation:                         
 ---------------------------------------------------------------------
 Center     Atomic      Atomic             Coordinates (Angstroms)
 Number     Number       Type             X           Y           Z
 ---------------------------------------------------------------------
      1          6           0       -0.128604    1.245462   -0.431510
      2          6           0        1.261490    1.185572   -0.356726
      3          6           0        1.883551   -0.015073   -0.007654
      4          6           0        1.119325   -1.149981    0.267882
      5          6           0       -0.272084   -1.084234    0.193124
      6          6           0       -0.907204    0.116375   -0.160334
      7          1           0       -0.614520    2.167624   -0.704987
      8          1           0        1.854174    2.059932   -0.570713
      9          1           0        1.604178   -2.073765    0.538974
     10          1           0       -0.844471   -1.966737    0.411600
     11          6           0        3.358543   -0.084635    0.070162
     12          7           0        4.514271   -0.139152    0.131513
     13          7           0       -2.363705    0.267655   -0.252463
     14          6           0       -3.083797   -0.947095   -0.692010
     15          1           0       -2.995311   -1.761896    0.019191
     16          1           0       -4.133189   -0.703463   -0.796319
     17          1           0       -2.701741   -1.267744   -1.652265
     18          6           0       -2.910042    0.742062    1.038179
     19          1           0       -2.425528    1.667811    1.319808
     20          1           0       -3.972336    0.921046    0.929556
     21          1           0       -2.752290    0.006959    1.825122
 ---------------------------------------------------------------------
 Rotational constants (GHZ):      3.4531506      0.5574548      0.5150654
 Standard basis: 6-31G (6D, 7F)
 There are   119 symmetry adapted basis functions of A   symmetry.
 Integral buffers will be    262144 words long.
 Raffenetti 2 integral format.
 Two-electron integral symmetry is turned on.
   119 basis functions,   282 primitive gaussians,   119 cartesian basis functions
    39 alpha electrons       39 beta electrons
       nuclear repulsion energy       544.6622012530 Hartrees.
 NAtoms=   21 NActive=   21 NUniq=   21 SFac= 7.50D-01 NAtFMM=   80 NAOKFM=F Big=F
 One-electron integrals computed using PRISM.
 NBasis=   119 RedAO= T  NBF=   119
 NBsUse=   119 1.00D-06 NBFU=   119
 Initial guess read from the read-write file.
 B after Tr=     0.000000    0.000000    0.000000
         Rot=    1.000000    0.000000    0.000000    0.000000 Ang=   0.00 deg.
 Initial guess orbital symmetries:
       Occupied  (A) (A) (A) (A) (A) (A) (A) (A) (A) (A) (A) (A)
                 (A) (A) (A) (A) (A) (A) (A) (A) (A) (A) (A) (A)
                 (A) (A) (A) (A) (A) (A) (A) (A) (A) (A) (A) (A)
                 (A) (A) (A)
       Virtual   (A) (A) (A) (A) (A) (A) (A) (A) (A) (A) (A) (A)
                 (A) (A) (A) (A) (A) (A) (A) (A) (A) (A) (A) (A)
                 (A) (A) (A) (A) (A) (A) (A) (A) (A) (A) (A) (A)
                 (A) (A) (A) (A) (A) (A) (A) (A) (A) (A) (A) (A)
                 (A) (A) (A) (A) (A) (A) (A) (A) (A) (A) (A) (A)
                 (A) (A) (A) (A) (A) (A) (A) (A) (A) (A) (A) (A)
                 (A) (A) (A) (A) (A) (A) (A) (A)
 Harris functional with IExCor=20419 diagonalized for initial guess.
 ExpMin= 1.61D-01 ExpMax= 4.17D+03 ExpMxC= 6.27D+02 IAcc=1 IRadAn=         1 AccDes= 0.00D+00
 HarFok:  IExCor=20419 AccDes= 0.00D+00 IRadAn=         1 IDoV= 1
 ScaDFX=  1.000000  1.000000  1.000000  1.000000
 FoFCou: FMM=F IPFlag=           0 FMFlag=      100000 FMFlg1=           0
         NFxFlg=           0 DoJE=T BraDBF=F KetDBF=T FulRan=T
         Omega=  0.000000  0.000000  1.000000  0.000000  0.000000 ICntrl=     500 IOpCl=  0
         NMat0=    1 NMatS0=    1 NMatT0=    0 NMatD0=    1 NMtDS0=    0 NMtDT0=    0
         I1Cent=           4 NGrid=           0.
 Petite list used in FoFCou.
 Requested convergence on RMS density matrix=1.00D-08 within 128 cycles.
 Requested convergence on MAX density matrix=1.00D-06.
 Requested convergence on             energy=1.00D-06.
 No special actions if energy rises.
 Integral accuracy reduced to 1.0D-05 until final iterations.
 FoFJK:  IHMeth= 1 ICntrl=     0 DoSepK=T KAlg= 1 I1Cent= 0 FoldK=F
 FoFJK:  IHMeth= 1 ICntrl=     0 DoSepK=T KAlg= 1 I1Cent= 0 FoldK=F
 FoFJK:  IHMeth= 1 ICntrl=     0 DoSepK=T KAlg= 1 I1Cent= 0 FoldK=F
 FoFJK:  IHMeth= 1 ICntrl=     0 DoSepK=T KAlg= 1 I1Cent= 0 FoldK=F
 FoFJK:  IHMeth= 1 ICntrl=     0 DoSepK=T KAlg= 1 I1Cent= 0 FoldK=F
 FoFJK:  IHMeth= 1 ICntrl=     0 DoSepK=T KAlg= 1 I1Cent= 0 FoldK=F
 Initial convergence to 1.0D-05 achieved.  Increase integral accuracy.
 FoFJK:  IHMeth= 1 ICntrl=     0 DoSepK=T KAlg= 1 I1Cent= 0 FoldK=F
 FoFJK:  IHMeth= 1 ICntrl=     0 DoSepK=T KAlg= 1 I1Cent= 0 FoldK=F
 FoFJK:  IHMeth= 1 ICntrl=     0 DoSepK=T KAlg= 1 I1Cent= 0 FoldK=F
 FoFJK:  IHMeth= 1 ICntrl=     0 DoSepK=T KAlg= 1 I1Cent= 0 FoldK=F
 FoFJK:  IHMeth= 1 ICntrl=     0 DoSepK=T KAlg= 1 I1Cent= 0 FoldK=F
 FoFJK:  IHMeth= 1 ICntrl=     0 DoSepK=T KAlg= 1 I1Cent= 0 FoldK=F
 FoFJK:  IHMeth= 1 ICntrl=     0 DoSepK=T KAlg= 1 I1Cent= 0 FoldK=F
 SCF Done:  E(RCAM-B3LYP) =  -458.062828406     A.U. after   13 cycles
             Convg  =    0.7903D-08             -V/T =  2.0054
 Calling FoFJK, ICntrl=      2127 FMM=F ISym2X=0 I1Cent= 0 IOpClX= 0 NMat=1 NMatS=1 NMatT=0.
 FoFJK:  IHMeth= 1 ICntrl=  2127 DoSepK=T KAlg= 1 I1Cent= 0 FoldK=F
 ***** Axes restored to original set *****
 -------------------------------------------------------------------
 Center     Atomic                   Forces (Hartrees/Bohr)
 Number     Number              X              Y              Z
 -------------------------------------------------------------------
      1        6           0.008360155    0.001944969   -0.001252726
      2        6          -0.008012675    0.002776156   -0.001347412
      3        6           0.032367455   -0.003145241    0.001632252
      4        6          -0.007362422   -0.002137733   -0.000064148
      5        6           0.002178895   -0.008382946    0.000545802
      6        6          -0.014394763   -0.001494614    0.004563835
      7        1          -0.003685133   -0.002048524    0.000748526
      8        1           0.001819749   -0.003250525    0.000081761
      9        1           0.002345100    0.002819879    0.000288357
     10        1          -0.003102362    0.005251538    0.000526682
     11        6          -0.048943932    0.005974843   -0.002310683
     12        7           0.019753759   -0.002379938    0.000951276
     13        7           0.017823241    0.012956368   -0.003508362
     14        6           0.006570931   -0.013897101   -0.003040935
     15        1           0.001464093    0.010693787   -0.002889061
     16        1          -0.006493349   -0.001205555    0.000138554
     17        1           0.001628753   -0.000057359    0.006046172
     18        6           0.000589180   -0.006128565    0.008922486
     19        1           0.001785228   -0.004594082   -0.003726393
     20        1          -0.006514786   -0.000729241   -0.000585408
     21        1           0.001822882    0.007033886   -0.005720574
 -------------------------------------------------------------------
 Cartesian Forces:  Max     0.048943932 RMS     0.009533351

 GradGradGradGradGradGradGradGradGradGradGradGradGradGradGradGradGradGrad
 Berny optimization.
 Using GEDIIS/GDIIS optimizer.
 Internal  Forces:  Max     0.029441901 RMS     0.004879321
 Search for a local minimum.
 Step number   2 out of a maximum of  106
 All quantities printed in internal units (Hartrees-Bohrs-Radians)
 Mixed Optimization -- RFO/linear search
 Update second derivatives using D2CorX and points    1    2
 DE= -1.50D-02 DEPred=-1.85D-02 R= 8.10D-01
 SS=  1.41D+00  RLast= 3.00D-01 DXNew= 5.0454D-01 8.9954D-01
 Trust test= 8.10D-01 RLast= 3.00D-01 DXMaxT set to 5.05D-01
 Use linear search instead of GDIIS.
     Eigenvalues ---    0.00761   0.00766   0.00780   0.01665   0.02068
     Eigenvalues ---    0.02070   0.02070   0.02070   0.02070   0.02070
     Eigenvalues ---    0.02070   0.02071   0.03399   0.05044   0.05044
     Eigenvalues ---    0.07242   0.07328   0.07549   0.07629   0.15696
     Eigenvalues ---    0.16000   0.16000   0.16000   0.16000   0.16000
     Eigenvalues ---    0.16000   0.16000   0.16000   0.16109   0.18512
     Eigenvalues ---    0.19491   0.21978   0.22538   0.23177   0.24016
     Eigenvalues ---    0.25000   0.29247   0.34797   0.35740   0.36034
     Eigenvalues ---    0.37132   0.37230   0.37230   0.37230   0.37230
     Eigenvalues ---    0.37230   0.37230   0.37230   0.37230   0.40036
     Eigenvalues ---    0.41273   0.44009   0.45247   0.45389   0.45389
     Eigenvalues ---    0.48975   1.345231000.000001000.000001000.00000
     Eigenvalues --- 1000.000001000.000001000.000001000.000001000.00000
     Eigenvalues --- 1000.000001000.000001000.000001000.000001000.00000
     Eigenvalues --- 1000.000001000.000001000.000001000.000001000.00000
     Eigenvalues --- 1000.000001000.000001000.000001000.000001000.00000
     Eigenvalues --- 1000.000001000.000001000.000001000.000001000.00000
     Eigenvalues --- 1000.000001000.000001000.000001000.000001000.00000
     Eigenvalues --- 1000.000001000.000001000.000001000.000001000.00000
     Eigenvalues --- 1000.00000
 RFO step:  Lambda=-1.10383193D-02 EMin= 7.61116211D-03
 Quartic linear search produced a step of  0.55737.
 Iteration  1 RMS(Cart)=  0.10605229 RMS(Int)=  0.00503279
 Iteration  2 RMS(Cart)=  0.00957014 RMS(Int)=  0.00132610
 Iteration  3 RMS(Cart)=  0.00004621 RMS(Int)=  0.00132588
 Iteration  4 RMS(Cart)=  0.00000004 RMS(Int)=  0.00132588
 Variable       Old X    -DE/DX   Delta X   Delta X   Delta X     New X
                                 (Linear)    (Quad)   (Total)
    R1        2.63313  -0.00456  -0.00843  -0.00631  -0.01473   2.61839
    R2        2.64196  -0.00052  -0.00351   0.00131  -0.00219   2.63978
    R3        2.03643   0.00377   0.00804   0.00697   0.01501   2.05144
    R4        2.63910   0.00212  -0.00510   0.01283   0.00773   2.64683
    R5        2.03667   0.00370   0.00817   0.00656   0.01473   2.05141
    R6        2.63749   0.00138  -0.00600   0.01111   0.00509   2.64258
    R7        2.79430  -0.02944  -0.06459  -0.08800  -0.15259   2.64171
    R8        2.63610  -0.00352  -0.00678  -0.00491  -0.01170   2.62440
    R9        2.03701   0.00367   0.00836   0.00627   0.01463   2.05164
   R10        2.65220  -0.00523   0.00220  -0.02013  -0.01793   2.63427
   R11        2.03018   0.00605   0.00455   0.01957   0.02412   2.05430
   R12        2.77267  -0.01809  -0.00292  -0.07213  -0.07504   2.69763
   R13        2.18951   0.01992   0.01268   0.00896   0.02164   2.21115
   R14        2.79485  -0.00451   0.00945  -0.02817  -0.01872   2.77612
   R15        2.79609   0.00150   0.01014  -0.00391   0.00623   2.80232
   R16        2.05062   0.01098   0.01595   0.02782   0.04377   2.09439
   R17        2.04533   0.00653   0.01300   0.01302   0.02602   2.07135
   R18        2.04481   0.00625   0.01271   0.01218   0.02489   2.06970
   R19        2.04499   0.00612   0.01281   0.01158   0.02439   2.06938
   R20        2.04606   0.00654   0.01341   0.01265   0.02606   2.07212
   R21        2.05672   0.00897   0.01935   0.01640   0.03574   2.09246
    A1        2.10653  -0.00007   0.00676  -0.00769  -0.00092   2.10561
    A2        2.09468   0.00178   0.00016   0.01605   0.01615   2.11083
    A3        2.08197  -0.00171  -0.00693  -0.00840  -0.01537   2.06659
    A4        2.08833  -0.00056  -0.00338   0.00147  -0.00196   2.08637
    A5        2.09797   0.00069   0.00199   0.00259   0.00452   2.10249
    A6        2.09688  -0.00013   0.00138  -0.00412  -0.00280   2.09407
    A7        2.09963  -0.00129   0.00292  -0.00815  -0.00525   2.09438
    A8        2.09199   0.00074  -0.00134   0.00454   0.00320   2.09518
    A9        2.09157   0.00054  -0.00158   0.00360   0.00202   2.09359
   A10        2.09123   0.00036  -0.00176   0.00485   0.00305   2.09428
   A11        2.09465  -0.00037   0.00014  -0.00340  -0.00325   2.09140
   A12        2.09731   0.00001   0.00162  -0.00145   0.00018   2.09748
   A13        2.10040  -0.00023   0.00335  -0.00653  -0.00321   2.09719
   A14        2.07352   0.00100  -0.01163   0.02059   0.00896   2.08248
   A15        2.10926  -0.00076   0.00829  -0.01405  -0.00577   2.10350
   A16        2.08024   0.00179  -0.00789   0.01606   0.00817   2.08841
   A17        2.04586   0.00111  -0.02705   0.03416   0.00709   2.05294
   A18        2.15704  -0.00290   0.03492  -0.05024  -0.01535   2.14169
   A19        2.00127  -0.00281   0.05052  -0.02629   0.01611   2.01738
   A20        1.92285   0.00368   0.00681   0.06852   0.06880   1.99165
   A21        1.92070   0.00294   0.00561   0.05885   0.05764   1.97834
   A22        1.96302   0.00311   0.02920   0.00351   0.03252   1.99553
   A23        1.89212  -0.00116  -0.01032  -0.00306  -0.01336   1.87877
   A24        1.91264   0.00000   0.00112  -0.00196  -0.00121   1.91143
   A25        1.88730  -0.00069  -0.01301   0.00785  -0.00499   1.88231
   A26        1.90744  -0.00102  -0.00178  -0.00202  -0.00431   1.90313
   A27        1.90023  -0.00034  -0.00580  -0.00447  -0.01043   1.88981
   A28        1.91343   0.00051   0.00156   0.00204   0.00342   1.91685
   A29        1.90473  -0.00048  -0.00329  -0.00322  -0.00656   1.89818
   A30        1.93973   0.00327   0.01622   0.01694   0.03299   1.97272
   A31        1.90072  -0.00085  -0.00553  -0.00861  -0.01418   1.88654
   A32        1.90152  -0.00142  -0.00508  -0.00382  -0.00918   1.89234
   A33        1.90329  -0.00111  -0.00409  -0.00385  -0.00799   1.89530
   A34        3.14150   0.00002  -0.00005   0.00044   0.00039   3.14188
   A35        3.14223   0.00006   0.00036   0.00119   0.00154   3.14378
    D1        0.00038   0.00030   0.00021   0.01437   0.01455   0.01493
    D2        3.13791  -0.00009  -0.00205  -0.00316  -0.00532   3.13259
    D3       -3.13639   0.00058   0.00290   0.02593   0.02897  -3.10743
    D4        0.00114   0.00018   0.00063   0.00840   0.00909   0.01023
    D5        0.00265  -0.00029   0.00148  -0.01441  -0.01302  -0.01036
    D6        3.13415  -0.00038  -0.00415  -0.01620  -0.02027   3.11388
    D7        3.13946  -0.00055  -0.00119  -0.02583  -0.02699   3.11247
    D8       -0.01223  -0.00064  -0.00682  -0.02761  -0.03425  -0.04647
    D9       -0.00213  -0.00007  -0.00119  -0.00272  -0.00392  -0.00604
   D10        3.13922  -0.00024  -0.00132  -0.01077  -0.01211   3.12711
   D11       -3.13966   0.00032   0.00107   0.01479   0.01584  -3.12382
   D12        0.00169   0.00015   0.00094   0.00673   0.00765   0.00934
   D13        0.00081  -0.00018   0.00045  -0.00861  -0.00819  -0.00738
   D14       -3.13925  -0.00005   0.00130  -0.00302  -0.00173  -3.14098
   D15       -3.14054   0.00000   0.00059  -0.00056   0.00000  -3.14055
   D16        0.00258   0.00012   0.00144   0.00503   0.00646   0.00904
   D17        0.00227   0.00018   0.00126   0.00844   0.00974   0.01201
   D18       -3.13819   0.00002   0.00190   0.00027   0.00220  -3.13599
   D19       -3.14086   0.00006   0.00041   0.00285   0.00325  -3.13761
   D20        0.00187  -0.00010   0.00104  -0.00533  -0.00429  -0.00242
   D21       -0.00398   0.00004  -0.00222   0.00295   0.00075  -0.00323
   D22       -3.13479   0.00012   0.00379   0.00430   0.00825  -3.12655
   D23        3.13646   0.00021  -0.00286   0.01131   0.00839  -3.13834
   D24        0.00564   0.00028   0.00314   0.01267   0.01589   0.02153
   D25        2.58455  -0.00084  -0.01864   0.06790   0.04867   2.63322
   D26       -1.52066   0.00396   0.02795   0.18247   0.21101  -1.30964
   D27       -0.56763  -0.00090  -0.02454   0.06647   0.04133  -0.52630
   D28        1.61036   0.00389   0.02205   0.18104   0.20367   1.81403
   D29        1.12903   0.00334   0.04561   0.10005   0.14612   1.27515
   D30       -3.06820   0.00362   0.04091   0.10996   0.15093  -2.91727
   D31       -0.99636   0.00253   0.02833   0.10164   0.13005  -0.86631
   D32       -1.05008  -0.00184  -0.00161  -0.01955  -0.02109  -1.07117
   D33        1.03588  -0.00156  -0.00631  -0.00964  -0.01628   1.01959
   D34        3.10771  -0.00265  -0.01889  -0.01795  -0.03716   3.07055
   D35        0.98547  -0.00038  -0.03440  -0.04845  -0.08412   0.90135
   D36        3.06586  -0.00140  -0.04221  -0.05966  -0.10322   2.96264
   D37       -1.11767  -0.00104  -0.03928  -0.05590  -0.09663  -1.21430
   D38       -3.07426   0.00089   0.03753   0.01178   0.05076  -3.02350
   D39       -0.99387  -0.00013   0.02972   0.00058   0.03165  -0.96221
   D40        1.10578   0.00022   0.03265   0.00433   0.03825   1.14403
         Item               Value     Threshold  Converged?
 Maximum Force            0.029442     0.000450     NO 
 RMS     Force            0.004879     0.000300     NO 
 Maximum Displacement     0.313913     0.001800     NO 
 RMS     Displacement     0.111116     0.001200     NO 
 Predicted change in Energy=-5.603496D-03
 GradGradGradGradGradGradGradGradGradGradGradGradGradGradGradGradGradGrad

                          Input orientation:                          
 ---------------------------------------------------------------------
 Center     Atomic      Atomic             Coordinates (Angstroms)
 Number     Number       Type             X           Y           Z
 ---------------------------------------------------------------------
      1          6           0       -2.335352   -0.636961    0.007989
      2          6           0       -0.964843   -0.830300    0.072760
      3          6           0       -0.122602    0.266111    0.297075
      4          6           0       -0.665807    1.545974    0.446671
      5          6           0       -2.039710    1.731053    0.364041
      6          6           0       -2.881370    0.641345    0.146386
      7          1           0       -3.011159   -1.474680   -0.133374
      8          1           0       -0.544180   -1.826071   -0.026837
      9          1           0       -0.010344    2.393954    0.619873
     10          1           0       -2.449765    2.731506    0.476763
     11          6           0        1.260381    0.080566    0.381651
     12          7           0        2.418017   -0.074882    0.451127
     13          7           0       -4.298533    0.771466    0.034415
     14          6           0       -4.896503    1.875607    0.796940
     15          1           0       -4.702087    2.881124    0.373291
     16          1           0       -5.981537    1.720765    0.810388
     17          1           0       -4.532540    1.846440    1.829526
     18          6           0       -4.808096    0.672821   -1.354714
     19          1           0       -4.418947   -0.233952   -1.829590
     20          1           0       -5.901713    0.598978   -1.324714
     21          1           0       -4.530031    1.542681   -1.980887
 ---------------------------------------------------------------------
                    Distance matrix (angstroms):
                    1          2          3          4          5
     1  C    0.000000
     2  C    1.385595   0.000000
     3  C    2.407359   1.400644   0.000000
     4  C    2.782989   2.424028   1.398392   0.000000
     5  C    2.412813   2.792976   2.413679   1.388773   0.000000
     6  C    1.396909   2.417486   2.788245   2.411897   1.393998
     7  H    1.085574   2.155255   3.399912   3.868007   3.386423
     8  H    2.150231   1.085557   2.158673   3.407299   3.878469
     9  H    3.868657   3.406789   2.155114   1.085679   2.150166
    10  H    3.402853   3.880035   3.395018   2.142171   1.087086
    11  C    3.685616   2.424193   1.397935   2.421125   3.689853
    12  N    4.806956   3.486769   2.568025   3.483843   4.810438
    13  N    2.416287   3.698731   4.214591   3.737180   2.476235
    14  C    3.673545   4.827455   5.062655   4.257950   2.893020
    15  H    4.255796   5.275603   5.274067   4.252007   2.900172
    16  H    4.415584   5.676200   6.058600   5.331025   3.967030
    17  H    3.783241   4.793707   4.928834   4.117547   2.893987
    18  C    3.112386   4.366652   4.984744   4.600646   3.426067
    19  H    2.807219   3.988158   4.819891   4.736619   3.786031
    20  H    4.002820   5.326205   6.011583   5.607969   4.364465
    21  H    3.677373   4.749639   5.122906   4.563472   3.425765
                    6          7          8          9         10
     6  C    0.000000
     7  H    2.138381   0.000000
     8  H    3.403028   2.494155   0.000000
     9  H    3.396854   4.953645   4.302536   0.000000
    10  H    2.159677   4.287124   4.965518   2.466819   0.000000
    11  C    4.186159   4.574942   2.656796   2.650143   4.560889
    12  N    5.356245   5.637112   3.474151   3.467069   5.618876
    13  N    1.427522   2.594351   4.565754   4.622098   2.730452
    14  C    2.450996   3.955304   5.772672   4.916765   2.611820
    15  H    2.895359   4.699892   6.293327   4.723408   2.259656
    16  H    3.349191   4.463710   6.545673   6.012039   3.688674
    17  H    2.647938   4.146977   5.730657   4.713097   2.636524
    18  C    2.442655   3.054900   5.117489   5.466234   3.626874
    19  H    2.652313   2.529510   4.560546   5.686962   4.241566
    20  H    3.359821   3.751620   6.022334   6.458450   4.439475
    21  H    2.838270   3.850291   5.572593   5.283577   3.432325
                   11         12         13         14         15
    11  C    0.000000
    12  N    1.170091   0.000000
    13  N    5.612436   6.782477   0.000000
    14  C    6.426652   7.578008   1.469061   0.000000
    15  H    6.587429   7.709728   2.174477   1.108306   0.000000
    16  H    7.437704   8.596856   2.082260   1.096109   1.781707
    17  H    6.226764   7.341778   2.105410   1.095241   1.794418
    18  C    6.339727   7.485776   1.482924   2.466602   2.806037
    19  H    6.102727   7.209095   2.121291   3.402493   3.825775
    20  H    7.380787   8.533792   2.108831   2.672385   3.087153
    21  H    6.422478   7.537013   2.170208   2.821607   2.713519
                   16         17         18         19         20
    16  H    0.000000
    17  H    1.775958   0.000000
    18  C    2.676344   3.404805   0.000000
    19  H    3.637594   4.210707   1.095071   0.000000
    20  H    2.413180   3.657871   1.096517   1.774054   0.000000
    21  H    3.151159   3.822502   1.107280   1.786520   1.789595
                   21
    21  H    0.000000
 Stoichiometry    C9H10N2
 Framework group  C1[X(C9H10N2)]
 Deg. of freedom    57
 Full point group                 C1      NOp   1
 Largest Abelian subgroup         C1      NOp   1
 Largest concise Abelian subgroup C1      NOp   1
                         Standard orientation:                         
 ---------------------------------------------------------------------
 Center     Atomic      Atomic             Coordinates (Angstroms)
 Number     Number       Type             X           Y           Z
 ---------------------------------------------------------------------
      1          6           0       -0.135355    1.211003   -0.445461
      2          6           0        1.247312    1.179950   -0.360962
      3          6           0        1.890513   -0.010600    0.000543
      4          6           0        1.137327   -1.155131    0.280295
      5          6           0       -0.248800   -1.108812    0.208191
      6          6           0       -0.892047    0.072870   -0.156625
      7          1           0       -0.655600    2.112447   -0.754031
      8          1           0        1.832948    2.063744   -0.594144
      9          1           0        1.638735   -2.076330    0.560797
     10          1           0       -0.823698   -2.003631    0.433015
     11          6           0        3.285791   -0.058487    0.072153
     12          7           0        4.453621   -0.097903    0.133235
     13          7           0       -2.313116    0.186481   -0.230623
     14          6           0       -3.030594   -1.045852   -0.583782
     15          1           0       -3.064782   -1.802312    0.225503
     16          1           0       -4.062569   -0.770518   -0.830101
     17          1           0       -2.573131   -1.493714   -1.472432
     18          6           0       -2.922659    0.915847    0.907598
     19          1           0       -2.419111    1.878629    1.044241
     20          1           0       -3.976402    1.112459    0.676687
     21          1           0       -2.868847    0.354448    1.860490
 ---------------------------------------------------------------------
[...]
      8          1           0       -0.462979   -1.462356   -0.889104
      9          1           0       -0.049425    2.093589    1.474022
     10          1           0       -2.428698    2.562036    1.211539
     11          6           0        1.311106    0.014972    0.470454
     12          7           0        2.451444   -0.203809    0.600001
     13          7           0       -4.191963    1.070326   -0.154408
     14          6           0       -4.784314    2.251168    0.458115
     15          1           0       -4.331082    3.175947    0.080458
     16          1           0       -5.848160    2.279127    0.225542
     17          1           0       -4.676910    2.240258    1.549718
     18          6           0       -5.027078    0.163413   -0.929366
     19          1           0       -5.035816   -0.846736   -0.501850
     20          1           0       -6.050925    0.535374   -0.933259
     21          1           0       -4.689966    0.089725   -1.970612
 ---------------------------------------------------------------------
                    Distance matrix (angstroms):
                    1          2          3          4          5
     1  C    0.000000
     2  C    1.383754   0.000000
     3  C    2.424651   1.401902   0.000000
     4  C    2.782715   2.408770   1.401871   0.000000
     5  C    2.419770   2.782707   2.424643   1.383779   0.000000
     6  C    1.413422   2.433389   2.831893   2.433391   1.413391
     7  H    1.080702   2.126723   3.393361   3.863229   3.408360
     8  H    2.137740   1.083761   2.152200   3.392190   3.866468
     9  H    3.866474   3.392217   2.152208   1.083759   2.137727
    10  H    3.408376   3.863221   3.393337   2.126725   1.080704
    11  C    3.729914   2.459542   1.427038   2.459562   3.729943
    12  N    4.849901   3.524949   2.595378   3.524990   4.849949
    13  N    2.432123   3.695353   4.211046   3.695375   2.432123
    14  C    3.764116   4.890706   5.100240   4.225263   2.841566
    15  H    4.129627   5.115497   5.146326   4.147368   2.836382
    16  H    4.517405   5.754926   6.103030   5.296489   3.913717
    17  H    4.129537   5.115294   5.145966   4.146882   2.835895
    18  C    2.841519   4.225190   5.100206   4.890701   3.764102
    19  H    2.835775   4.146732   5.145872   5.115244   4.129492
    20  H    3.913669   5.296416   6.102999   5.754930   4.517398
    21  H    2.836356   4.147312   5.146293   5.115474   4.129598
                    6          7          8          9         10
     6  C    0.000000
     7  H    2.169690   0.000000
     8  H    3.411649   2.439176   0.000000
     9  H    3.411621   4.946973   4.289538   0.000000
    10  H    2.169679   4.318201   4.946967   2.439115   0.000000
    11  C    4.258931   4.585050   2.679230   2.679336   4.585071
    12  N    5.427271   5.642616   3.506456   3.506608   5.642665
    13  N    1.379153   2.683264   4.567229   4.567217   2.683302
    14  C    2.457566   4.133778   5.854844   4.845211   2.492631
    15  H    2.792826   4.620783   6.116872   4.630994   2.296801
    16  H    3.349241   4.671997   6.651414   5.934513   3.570006
    17  H    2.792622   4.620855   6.116732   4.630427   2.296162
    18  C    2.457560   2.492533   4.845178   5.854817   4.133817
    19  H    2.792582   2.295979   4.630313   6.116672   4.620876
    20  H    3.349229   3.569901   5.934477   6.651393   4.672049
    21  H    2.792829   2.296753   4.630986   6.116828   4.620794
                   11         12         13         14         15
    11  C    0.000000
    12  N    1.168340   0.000000
    13  N    5.638084   6.806424   0.000000
    14  C    6.492678   7.642201   1.456177   0.000000
    15  H    6.479054   7.595744   2.123242   1.096932   0.000000
    16  H    7.512753   8.671137   2.085318   1.089330   1.768293
    17  H    6.478660   7.595318   2.123195   1.096928   1.775904
    18  C    6.492620   7.642127   1.456183   2.518483   3.252617
    19  H    6.478529   7.595162   2.123189   3.252968   4.125253
    20  H    7.512704   8.671075   2.085311   2.546404   3.310303
    21  H    6.478986   7.595653   2.123248   3.252607   3.722963
                   16         17         18         19         20
    16  H    0.000000
    17  H    1.768270   0.000000
    18  C    2.546415   3.252961   0.000000
    19  H    3.310592   3.723879   1.096927   0.000000
    20  H    2.103475   3.310546   1.089326   1.768273   0.000000
    21  H    3.310284   4.125249   1.096936   1.775904   1.768308
                   21
    21  H    0.000000
 Stoichiometry    C9H10N2
 Framework group  C1[X(C9H10N2)]
 Deg. of freedom    57
 Full point group                 C1      NOp   1
 Largest Abelian subgroup         C1      NOp   1
 Largest concise Abelian subgroup C1      NOp   1
                         Standard orientation:                         
 ---------------------------------------------------------------------
 Center     Atomic      Atomic             Coordinates (Angstroms)
 Number     Number       Type             X           Y           Z
 ---------------------------------------------------------------------
      1          6           0        0.186509   -1.209873   -0.000001
      2          6           0       -1.197235   -1.204363    0.000002
      3          6           0       -1.914692    0.000040    0.000027
      4          6           0       -1.197238    1.204407    0.000027
      5          6           0        0.186531    1.209897    0.000009
      6          6           0        0.917201    0.000024   -0.000025
      7          1           0        0.703150   -2.159082    0.000026
      8          1           0       -1.735984   -2.144728    0.000027
      9          1           0       -1.735920    2.144810    0.000059
     10          1           0        0.703153    2.159119    0.000046
     11          6           0       -3.341730   -0.000001    0.000025
     12          7           0       -4.510070   -0.000042   -0.000043
     13          7           0        2.296354   -0.000007   -0.000137
     14          6           0        3.027669    1.259211    0.000018
     15          1           0        2.800275    1.861475    0.888180
     16          1           0        4.097049    1.051682   -0.000344
     17          1           0        2.799790    1.861900   -0.887725
     18          6           0        3.027599   -1.259272    0.000048
     19          1           0        2.799637   -1.861979   -0.887661
     20          1           0        4.096983   -1.051793   -0.000372
     21          1           0        2.800191   -1.861488    0.888243
 ---------------------------------------------------------------------
 Rotational constants (GHZ):      3.4603098      0.5771378      0.4977350

 **********************************************************************

            Population analysis using the SCF density.

 **********************************************************************

 Orbital symmetries:
       Occupied  (A) (A) (A) (A) (A) (A) (A) (A) (A) (A) (A) (A)
                 (A) (A) (A) (A) (A) (A) (A) (A) (A) (A) (A) (A)
                 (A) (A) (A) (A) (A) (A) (A) (A) (A) (A) (A) (A)
                 (A) (A) (A)
       Virtual   (A) (A) (A) (A) (A) (A) (A) (A) (A) (A) (A) (A)
                 (A) (A) (A) (A) (A) (A) (A) (A) (A) (A) (A) (A)
                 (A) (A) (A) (A) (A) (A) (A) (A) (A) (A) (A) (A)
                 (A) (A) (A) (A) (A) (A) (A) (A) (A) (A) (A) (A)
                 (A) (A) (A) (A) (A) (A) (A) (A) (A) (A) (A) (A)
                 (A) (A) (A) (A) (A) (A) (A) (A) (A) (A) (A) (A)
                 (A) (A) (A) (A) (A) (A) (A) (A)
 The electronic state is 1-A.
 Alpha  occ. eigenvalues --  -14.43915 -14.40496 -10.32063 -10.30029 -10.30024
 Alpha  occ. eigenvalues --  -10.29212 -10.28909 -10.27852 -10.27851 -10.26579
 Alpha  occ. eigenvalues --  -10.26579  -1.05010  -0.99408  -0.94980  -0.85792
 Alpha  occ. eigenvalues --   -0.85069  -0.82071  -0.77145  -0.69892  -0.68437
 Alpha  occ. eigenvalues --   -0.63474  -0.59575  -0.57299  -0.55169  -0.53331
 Alpha  occ. eigenvalues --   -0.50993  -0.50764  -0.49109  -0.48661  -0.46597
 Alpha  occ. eigenvalues --   -0.46425  -0.46142  -0.42060  -0.41339  -0.40713
 Alpha  occ. eigenvalues --   -0.38334  -0.34848  -0.32140  -0.25288
 Alpha virt. eigenvalues --    0.02187   0.03966   0.10433   0.12202   0.14423
 Alpha virt. eigenvalues --    0.15364   0.15866   0.16244   0.19751   0.20400
 Alpha virt. eigenvalues --    0.21081   0.21212   0.21430   0.22743   0.24793
 Alpha virt. eigenvalues --    0.26547   0.27095   0.29370   0.33965   0.36270
 Alpha virt. eigenvalues --    0.38025   0.41156   0.42081   0.48555   0.52377
 Alpha virt. eigenvalues --    0.54309   0.56928   0.57878   0.59622   0.59821
 Alpha virt. eigenvalues --    0.62178   0.64187   0.65511   0.65734   0.66784
 Alpha virt. eigenvalues --    0.67862   0.69696   0.70496   0.71067   0.71458
 Alpha virt. eigenvalues --    0.75207   0.75850   0.77486   0.77522   0.81401
 Alpha virt. eigenvalues --    0.81679   0.84463   0.86972   0.88148   0.89532
 Alpha virt. eigenvalues --    0.91795   0.91940   0.93303   0.95221   0.95754
 Alpha virt. eigenvalues --    0.97476   0.98964   1.01020   1.02261   1.02796
 Alpha virt. eigenvalues --    1.05990   1.06658   1.06845   1.11738   1.14128
 Alpha virt. eigenvalues --    1.17920   1.20531   1.23316   1.27826   1.27922
 Alpha virt. eigenvalues --    1.29820   1.33143   1.44025   1.51844   1.53573
 Alpha virt. eigenvalues --    1.56998   1.80356   1.81141   1.87985   2.04653
          Condensed to atoms (all electrons):
              1          2          3          4          5          6
     1  C    4.994950   0.511037  -0.054589  -0.047496  -0.041774   0.529261
     2  C    0.511037   4.867866   0.524582  -0.040290  -0.047495  -0.032060
     3  C   -0.054589   0.524582   4.998298   0.524600  -0.054589  -0.022324
     4  C   -0.047496  -0.040290   0.524600   4.867862   0.511019  -0.032057
     5  C   -0.041774  -0.047495  -0.054589   0.511019   4.994963   0.529279
     6  C    0.529261  -0.032060  -0.022324  -0.032057   0.529279   4.611415
     7  H    0.356053  -0.025955   0.003901   0.000766   0.003724  -0.039261
     8  H   -0.025745   0.357514  -0.037541   0.003720   0.000769   0.003118
     9  H    0.000769   0.003720  -0.037540   0.357514  -0.025746   0.003118
    10  H    0.003724   0.000766   0.003901  -0.025956   0.356055  -0.039262
    11  C    0.007724  -0.022881   0.121237  -0.022884   0.007723   0.001044
    12  N    0.000003   0.000840  -0.054584   0.000840   0.000003   0.000007
    13  N   -0.071010   0.006582   0.000207   0.006582  -0.071015   0.219759
    14  C    0.003216  -0.000113  -0.000004   0.000190  -0.002486  -0.039901
    15  H    0.000081   0.000000  -0.000010   0.000098   0.002812  -0.003437
    16  H   -0.000147   0.000002   0.000000  -0.000011   0.000416   0.004200
    17  H    0.000081   0.000000  -0.000010   0.000099   0.002814  -0.003445
    18  C   -0.002487   0.000190  -0.000004  -0.000113   0.003216  -0.039902
    19  H    0.002814   0.000099  -0.000010   0.000000   0.000081  -0.003446
    20  H    0.000417  -0.000011   0.000000   0.000002  -0.000147   0.004200
    21  H    0.002811   0.000098  -0.000010   0.000000   0.000081  -0.003437
              7          8          9         10         11         12
     1  C    0.356053  -0.025745   0.000769   0.003724   0.007724   0.000003
     2  C   -0.025955   0.357514   0.003720   0.000766  -0.022881   0.000840
     3  C    0.003901  -0.037541  -0.037540   0.003901   0.121237  -0.054584
     4  C    0.000766   0.003720   0.357514  -0.025956  -0.022884   0.000840
     5  C    0.003724   0.000769  -0.025746   0.356055   0.007723   0.000003
     6  C   -0.039261   0.003118   0.003118  -0.039262   0.001044   0.000007
     7  H    0.570235  -0.003922   0.000012  -0.000151  -0.000253  -0.000001
     8  H   -0.003922   0.548991  -0.000163   0.000012  -0.005232   0.000293
     9  H    0.000012  -0.000163   0.548991  -0.003923  -0.005230   0.000293
    10  H   -0.000151   0.000012  -0.003923   0.570237  -0.000253  -0.000001
    11  C   -0.000253  -0.005232  -0.005230  -0.000253   5.073379   0.945163
    12  N   -0.000001   0.000293   0.000293  -0.000001   0.945163   6.319574
    13  N   -0.010425  -0.000121  -0.000121  -0.010424  -0.000005   0.000000
    14  C   -0.000009   0.000002   0.000006   0.006838   0.000000   0.000000
    15  H   -0.000003   0.000000  -0.000002   0.000102   0.000000   0.000000
    16  H   -0.000001   0.000000   0.000000   0.000129   0.000000   0.000000
    17  H   -0.000003   0.000000  -0.000002   0.000100   0.000000   0.000000
    18  C    0.006839   0.000006   0.000002  -0.000009   0.000000   0.000000
    19  H    0.000100  -0.000002   0.000000  -0.000003   0.000000   0.000000
    20  H    0.000129   0.000000   0.000000  -0.000001   0.000000   0.000000
    21  H    0.000101  -0.000002   0.000000  -0.000003   0.000000   0.000000
             13         14         15         16         17         18
     1  C   -0.071010   0.003216   0.000081  -0.000147   0.000081  -0.002487
     2  C    0.006582  -0.000113   0.000000   0.000002   0.000000   0.000190
     3  C    0.000207  -0.000004  -0.000010   0.000000  -0.000010  -0.000004
     4  C    0.006582   0.000190   0.000098  -0.000011   0.000099  -0.000113
     5  C   -0.071015  -0.002486   0.002812   0.000416   0.002814   0.003216
     6  C    0.219759  -0.039901  -0.003437   0.004200  -0.003445  -0.039902
     7  H   -0.010425  -0.000009  -0.000003  -0.000001  -0.000003   0.006839
     8  H   -0.000121   0.000002   0.000000   0.000000   0.000000   0.000006
     9  H   -0.000121   0.000006  -0.000002   0.000000  -0.000002   0.000002
    10  H   -0.010424   0.006838   0.000102   0.000129   0.000100  -0.000009
    11  C   -0.000005   0.000000   0.000000   0.000000   0.000000   0.000000
    12  N    0.000000   0.000000   0.000000   0.000000   0.000000   0.000000
    13  N    7.326334   0.258431  -0.052602  -0.035456  -0.052584   0.258429
    14  C    0.258431   4.910341   0.382220   0.380295   0.382219  -0.043453
    15  H   -0.052602   0.382220   0.587595  -0.028276  -0.050156   0.002462
    16  H   -0.035456   0.380295  -0.028276   0.559032  -0.028259  -0.006350
    17  H   -0.052584   0.382219  -0.050156  -0.028259   0.587551   0.002464
    18  C    0.258429  -0.043453   0.002462  -0.006350   0.002464   4.910344
    19  H   -0.052584   0.002464  -0.000336   0.000198   0.000452   0.382219
    20  H   -0.035457  -0.006350   0.000197   0.004391   0.000198   0.380294
    21  H   -0.052603   0.002461   0.000454   0.000197  -0.000336   0.382221
             19         20         21
     1  C    0.002814   0.000417   0.002811
     2  C    0.000099  -0.000011   0.000098
     3  C   -0.000010   0.000000  -0.000010
     4  C    0.000000   0.000002   0.000000
     5  C    0.000081  -0.000147   0.000081
     6  C   -0.003446   0.004200  -0.003437
     7  H    0.000100   0.000129   0.000101
     8  H   -0.000002   0.000000  -0.000002
     9  H    0.000000   0.000000   0.000000
    10  H   -0.000003  -0.000001  -0.000003
    11  C    0.000000   0.000000   0.000000
    12  N    0.000000   0.000000   0.000000
    13  N   -0.052584  -0.035457  -0.052603
    14  C    0.002464  -0.006350   0.002461
    15  H   -0.000336   0.000197   0.000454
    16  H    0.000198   0.004391   0.000197
    17  H    0.000452   0.000198  -0.000336
    18  C    0.382219   0.380294   0.382221
    19  H    0.587550  -0.028258  -0.050157
    20  H   -0.028258   0.559030  -0.028275
    21  H   -0.050157  -0.028275   0.587595
 Mulliken atomic charges:
              1
     1  C   -0.169694
     2  C   -0.104492
     3  C    0.084487
     4  C   -0.104486
     5  C   -0.169705
     6  C    0.353130
     7  H    0.138124
     8  H    0.158305
     9  H    0.158303
    10  H    0.138121
    11  C   -0.099533
    12  N   -0.212431
    13  N   -0.631918
    14  C   -0.236367
    15  H    0.158802
    16  H    0.149640
    17  H    0.158818
    18  C   -0.236366
    19  H    0.158819
    20  H    0.149640
    21  H    0.158803
 Sum of Mulliken atomic charges =   0.00000
 Mulliken charges with hydrogens summed into heavy atoms:
              1
     1  C   -0.031570
     2  C    0.053813
     3  C    0.084487
     4  C    0.053817
     5  C   -0.031583
     6  C    0.353130
    11  C   -0.099533
    12  N   -0.212431
    13  N   -0.631918
    14  C    0.230893
    18  C    0.230896
 Sum of Mulliken charges with hydrogens summed into heavy atoms =   0.00000
 Electronic spatial extent (au):  <R**2>=           2170.3198
 Charge=              0.0000 electrons
 Dipole moment (field-independent basis, Debye):
    X=              7.5289    Y=              0.0000    Z=              0.0004  Tot=              7.5289
 Quadrupole moment (field-independent basis, Debye-Ang):
   XX=            -82.0199   YY=            -57.0728   ZZ=            -67.8753
   XY=             -0.0005   XZ=             -0.0001   YZ=              0.0000
 Traceless Quadrupole moment (field-independent basis, Debye-Ang):
   XX=            -13.0306   YY=             11.9166   ZZ=              1.1140
   XY=             -0.0005   XZ=             -0.0001   YZ=              0.0000
 Octapole moment (field-independent basis, Debye-Ang**2):
  XXX=            199.6460  YYY=              0.0004  ZZZ=              0.0010  XYY=              5.4980
  XXY=              0.0019  XXZ=              0.0013  XZZ=              3.4709  YZZ=             -0.0001
  YYZ=             -0.0009  XYZ=             -0.0001
 Hexadecapole moment (field-independent basis, Debye-Ang**3):
 XXXX=          -3022.0827 YYYY=           -454.4638 ZZZZ=            -81.8213 XXXY=             -0.0089
 XXXZ=             -0.0219 YYYX=             -0.0012 YYYZ=              0.0004 ZZZX=              0.0037
 ZZZY=             -0.0003 XXYY=           -443.5778 XXZZ=           -418.5151 YYZZ=            -97.7214
 XXYZ=             -0.0001 YYXZ=             -0.0026 ZZXY=              0.0001
 N-N= 5.466203694834D+02 E-N=-2.156402249473D+03  KE= 4.556283928005D+02
 1|1|UNPC-DESKTOP-K2VF0AK|FOpt|RCAM-B3LYP|6-31G|C9H10N2|MELIH|12-Jan-20
 25|0||# opt cam-b3lyp/6-31g geom=connectivity||Title Card Required||0,
 1|C,-2.2492864338,-0.3275112744,-0.5871694947|C,-0.8981557949,-0.58197
 72143,-0.4307455927|C,-0.0817463621,0.2821469939,0.3122852233|C,-0.665
 8869083,1.4148434843,0.8962550887|C,-2.0159848122,1.678424639,0.745901
 0753|C,-2.8458196358,0.812234101,-0.0016020455|H,-2.8450727501,-1.0176
 519317,-1.1673945437|H,-0.4629788828,-1.4623559006,-0.8891041112|H,-0.
 04942532,2.0935886683,1.4740221031|H,-2.4286982814,2.562035742,1.21153
 94276|C,1.3111058957,0.0149724283,0.4704544149|N,2.4514437163,-0.20380
 94823,0.6000008323|N,-4.1919629597,1.070325873,-0.1544076189|C,-4.7843
 135507,2.2511681857,0.4581150926|H,-4.3310817096,3.1759472391,0.080458
 0163|H,-5.84815976,2.2791271068,0.2255417111|H,-4.676910133,2.24025752
 76,1.5497175866|C,-5.0270783305,0.1634132201,-0.9293655787|H,-5.035816
 262,-0.8467363083,-0.5018497222|H,-6.0509246948,0.5353743207,-0.933259
 3281|H,-4.6899659604,0.0897252818,-1.970611756||Version=IA32W-G09RevA.
 02|State=1-A|HF=-458.0791427|RMSD=1.556e-009|RMSF=5.292e-006|Dipole=-2
 .8911161,0.5545887,-0.3284607|Quadrupole=-9.1154024,5.9787977,3.136604
 7,2.5637651,-0.711054,3.8861287|PG=C01 [X(C9H10N2)]||@


 WOE UNTO THEM THAT CALL EVIL GOOD, AND GOOD EVIL      
 Job cpu time:  0 days  0 hours 18 minutes 12.0 seconds.
 File lengths (MBytes):  RWF=     15 Int=      0 D2E=      0 Chk=      2 Scr=      1
 Normal termination of Gaussian 09 at Sun Jan 12 01:05:06 2025.
