 Entering Link 1 = C:\G09W\l1.exe PID=     14432.
  
 Copyright (c) 1988,1990,1992,1993,1995,1998,2003,2009, Gaussian, Inc.
                  All Rights Reserved.
  
 This is part of the Gaussian(R) 09 program.  It is based on
 the Gaussian(R) 03 system (copyright 2003, Gaussian, Inc.),
 the Gaussian(R) 98 system (copyright 1998, Gaussian, Inc.),
 the Gaussian(R) 94 system (copyright 1995, Gaussian, Inc.),
 the Gaussian 92(TM) system (copyright 1992, Gaussian, Inc.),
 the Gaussian 90(TM) system (copyright 1990, Gaussian, Inc.),
 the Gaussian 88(TM) system (copyright 1988, Gaussian, Inc.),
 the Gaussian 86(TM) system (copyright 1986, Carnegie Mellon
 University), and the Gaussian 82(TM) system (copyright 1983,
 Carnegie Mellon University). Gaussian is a federally registered
 trademark of Gaussian, Inc.
  
 This software contains proprietary and confidential information,
 including trade secrets, belonging to Gaussian, Inc.
  
 This software is provided under written license and may be
 used, copied, transmitted, or stored only in accord with that
 written license.
  
 The following legend is applicable only to US Government
 contracts under FAR:
  
                    RESTRICTED RIGHTS LEGEND
  
 Use, reproduction and disclosure by the US Government is
 subject to restrictions as set forth in subparagraphs (a)
 and (c) of the Commercial Computer Software - Restricted
 Rights clause in FAR 52.227-19.
  
 Gaussian, Inc.
 340 Quinnipiac St., Bldg. 40, Wallingford CT 06492
  
  
 ---------------------------------------------------------------
 Warning -- This program may not be used in any manner that
 competes with the business of Gaussian, Inc. or will provide
 assistance to any competitor of Gaussian, Inc.  The licensee
 of this program is prohibited from giving any competitor of
 Gaussian, Inc. access to this program.  By using this program,
 the user acknowledges that Gaussian, Inc. is engaged in the
 business of creating and licensing software in the field of
 computational chemistry and represents and warrants to the
 licensee that it is not a competitor of Gaussian, Inc. and that
 it will not use this program in any manner prohibited above.
 ---------------------------------------------------------------
  

 Cite this work as:
 Gaussian 09, Revision A.02,
 M. J. Frisch, G. W. Trucks, H. B. Schlegel, G. E. Scuseria, 
 M. A. Robb, J. R. Cheeseman, G. Scalmani, V. Barone, B. Mennucci, 
 G. A. Petersson, H. Nakatsuji, M. Caricato, X. Li, H. P. Hratchian, 
 A. F. Izmaylov, J. Bloino, G. Zheng, J. L. Sonnenberg, M. Hada, 
 M. Ehara, K. Toyota, R. Fukuda, J. Hasegawa, M. Ishida, T. Nakajima, 
 Y. Honda, O. Kitao, H. Nakai, T. Vreven, J. A. Montgomery, Jr., 
 J. E. Peralta, F. Ogliaro, M. Bearpark, J. J. Heyd, E. Brothers, 
 K. N. Kudin, V. N. Staroverov, R. Kobayashi, J. Normand, 
 K. Raghavachari, A. Rendell, J. C. Burant, S. S. Iyengar, J. Tomasi, 
 M. Cossi, N. Rega, J. M. Millam, M. Klene, J. E. Knox, J. B. Cross, 
 V. Bakken, C. Adamo, J. Jaramillo, R. Gomperts, R. E. Stratmann, 
 O. Yazyev, A. J. Austin, R. Cammi, C. Pomelli, J. W. Ochterski, 
 R. L. Martin, K. Morokuma, V. G. Zakrzewski, G. A. Voth, 
 P. Salvador, J. J. Dannenberg, S. Dapprich, A. D. Daniels, 
 O. Farkas, J. B. Foresman, J. V. Ortiz, J. Cioslowski, 
 and D. J. Fox, Gaussian, Inc., Wallingford CT, 2009.
 
 ******************************************
 Gaussian 09:  IA32W-G09RevA.02 11-Jun-2009
                16-Jan-2025 
 ******************************************
 %chk=C:\G09W\Final\UVVISZINDOacetonitrile.chk
 ----------------------------------------------------------------------
 # rzindo=(nstates=10) scrf=(cpcm,solvent=acetonitrile) geom=connectivi
 ty
 ----------------------------------------------------------------------
 1/38=1,57=2/1;
 2/12=2,17=6,18=5,40=1/2;
 3/5=2,16=1,25=1,41=400000,70=2101,72=2,116=1/1,2,8,3;
 4/5=3,35=1/1;
 5/5=2,35=1,38=5,53=2/2;
 8/6=1,108=10/1;
 9/41=10,42=1,49=10/14;
 6/7=2,8=2,9=2,10=2/1;
 99/5=1,9=1/99;
 -------------------
 Title Card Required
 -------------------
 Symbolic Z-matrix:
 Charge =  0 Multiplicity = 1
 C                     0.18559  -1.21525  -0.00003 
 C                    -1.20301  -1.21029   0.00001 
 C                    -1.92667   0.00001   0.00004 
 C                    -1.20302   1.2103    0.00012 
 C                     0.1856    1.21525   0.0001 
 C                     0.92134   0.00001  -0.00007 
 H                     0.70185  -2.16597   0.00001 
 H                    -1.74145  -2.15195   0.00003 
 H                    -1.74141   2.15198   0.00023 
 H                     0.70183   2.16599   0.00026 
 C                    -3.35316   0.       -0.00001 
 N                    -4.52924  -0.00001  -0.00008 
 N                     2.3059    0.       -0.00037 
 C                     3.04294   1.26452  -0.00003 
 H                     2.81614   1.86732   0.88991 
 H                     4.11302   1.0543   -0.00124 
 H                     2.81447   1.86849  -0.88872 
 C                     3.04294  -1.26453   0.00018 
 H                     2.81508  -1.86833  -0.88879 
 H                     4.11303  -1.05431  -0.00019 
 H                     2.8155   -1.86748   0.88985 
 
                          Input orientation:                          
 ---------------------------------------------------------------------
 Center     Atomic      Atomic             Coordinates (Angstroms)
 Number     Number       Type             X           Y           Z
 ---------------------------------------------------------------------
      1          6           0        0.185586   -1.215253   -0.000032
      2          6           0       -1.203011   -1.210294    0.000005
      3          6           0       -1.926666    0.000012    0.000035
      4          6           0       -1.203018    1.210298    0.000117
      5          6           0        0.185599    1.215247    0.000104
      6          6           0        0.921341    0.000012   -0.000068
      7          1           0        0.701854   -2.165967    0.000011
      8          1           0       -1.741445   -2.151948    0.000025
      9          1           0       -1.741406    2.151977    0.000230
     10          1           0        0.701829    2.165985    0.000264
     11          6           0       -3.353159    0.000000   -0.000005
     12          7           0       -4.529239   -0.000012   -0.000084
     13          7           0        2.305899    0.000000   -0.000374
     14          6           0        3.042937    1.264518   -0.000032
     15          1           0        2.816137    1.867316    0.889910
     16          1           0        4.113024    1.054302   -0.001241
     17          1           0        2.814473    1.868491   -0.888716
     18          6           0        3.042941   -1.264533    0.000184
     19          1           0        2.815083   -1.868325   -0.888785
     20          1           0        4.113026   -1.054311   -0.000192
     21          1           0        2.815503   -1.867479    0.889850
 ---------------------------------------------------------------------
                    Distance matrix (angstroms):
                    1          2          3          4          5
     1  C    0.000000
     2  C    1.388606   0.000000
     3  C    2.436899   1.410148   0.000000
     4  C    2.794909   2.420592   1.410127   0.000000
     5  C    2.430500   2.794904   2.436895   1.388626   0.000000
     6  C    1.420635   2.444936   2.848007   2.444932   1.420603
     7  H    1.081846   2.131155   3.405963   3.876558   3.420399
     8  H    2.142626   1.084723   2.159916   3.405085   3.879626
     9  H    3.879631   3.405104   2.159925   1.084722   2.142618
    10  H    3.420421   3.876555   3.405940   2.131145   1.081849
    11  C    3.741598   2.467377   1.426493   2.467373   3.741608
    12  N    4.868920   3.539573   2.602573   3.539576   4.868937
    13  N    2.443884   3.711773   4.232565   3.711781   2.443869
    14  C    3.783348   4.914547   5.127956   4.246301   2.857763
    15  H    4.148979   5.139763   5.174252   4.168574   2.852486
    16  H    4.536039   5.778289   6.131018   5.318330   3.930722
    17  H    4.148528   5.138961   5.172958   4.166950   2.850913
    18  C    2.857780   4.246298   5.127969   4.914566   3.783347
    19  H    2.851428   4.167497   5.173477   5.139378   4.148822
    20  H    3.930736   5.318325   6.131026   5.778302   4.536031
    21  H    2.851973   4.167994   5.173728   5.139343   4.148643
                    6          7          8          9         10
     6  C    0.000000
     7  H    2.177071   0.000000
     8  H    3.423647   2.443339   0.000000
     9  H    3.423620   4.961266   4.303925   0.000000
    10  H    2.177068   4.331952   4.961263   2.443275   0.000000
    11  C    4.274500   4.597232   2.688587   2.688634   4.597219
    12  N    5.450580   5.661775   3.521736   3.521799   5.661768
    13  N    1.384558   2.695250   4.583871   4.583850   2.695280
    14  C    2.469847   4.153179   5.878992   4.865955   2.508671
    15  H    2.805198   4.639988   6.141493   4.652286   2.313217
    16  H    3.361305   4.691078   6.674942   5.956446   3.587770
    17  H    2.804435   4.640027   6.140861   4.650443   2.311288
    18  C    2.469871   2.508639   4.865990   5.878989   4.153223
    19  H    2.804774   2.311771   4.651061   6.141235   4.640249
    20  H    3.361317   3.587739   5.956479   6.674927   4.691116
    21  H    2.804875   2.312665   4.651719   6.141081   4.639807
                   11         12         13         14         15
    11  C    0.000000
    12  N    1.176080   0.000000
    13  N    5.659058   6.835138   0.000000
    14  C    6.519896   7.677036   1.463636   0.000000
    15  H    6.506845   7.631091   2.130685   1.098545   0.000000
    16  H    7.540255   8.706336   2.092189   1.090540   1.771174
    17  H    6.505440   7.629618   2.130506   1.098516   1.778627
    18  C    6.519903   7.677039   1.463651   2.529051   3.263668
    19  H    6.505980   7.630167   2.130535   3.264430   4.137484
    20  H    7.540258   8.706336   2.092195   2.553832   3.318148
    21  H    6.506282   7.630508   2.130651   3.263897   3.734795
                   16         17         18         19         20
    16  H    0.000000
    17  H    1.771087   0.000000
    18  C    2.553835   3.264687   0.000000
    19  H    3.318755   3.736816   1.098522   0.000000
    20  H    2.108613   3.319411   1.090539   1.771122   0.000000
    21  H    3.318796   4.137725   1.098534   1.778635   1.771153
                   21
    21  H    0.000000
 Stoichiometry    C9H10N2
 Framework group  C1[X(C9H10N2)]
 Deg. of freedom    57
 Full point group                 C1      NOp   1
 Largest Abelian subgroup         C1      NOp   1
 Largest concise Abelian subgroup C1      NOp   1
                         Standard orientation:                         
 ---------------------------------------------------------------------
 Center     Atomic      Atomic             Coordinates (Angstroms)
 Number     Number       Type             X           Y           Z
 ---------------------------------------------------------------------
      1          6           0        0.185586   -1.215253   -0.000032
      2          6           0       -1.203011   -1.210294    0.000005
      3          6           0       -1.926666    0.000012    0.000035
      4          6           0       -1.203018    1.210298    0.000117
      5          6           0        0.185599    1.215247    0.000104
      6          6           0        0.921341    0.000012   -0.000068
      7          1           0        0.701854   -2.165967    0.000011
      8          1           0       -1.741445   -2.151948    0.000025
      9          1           0       -1.741406    2.151977    0.000230
     10          1           0        0.701829    2.165985    0.000264
     11          6           0       -3.353159    0.000000   -0.000005
     12          7           0       -4.529239   -0.000012   -0.000084
     13          7           0        2.305899    0.000000   -0.000374
     14          6           0        3.042937    1.264518   -0.000032
     15          1           0        2.816137    1.867316    0.889910
     16          1           0        4.113024    1.054302   -0.001241
     17          1           0        2.814473    1.868491   -0.888716
     18          6           0        3.042941   -1.264533    0.000184
     19          1           0        2.815083   -1.868325   -0.888785
     20          1           0        4.113026   -1.054311   -0.000192
     21          1           0        2.815503   -1.867479    0.889850
 ---------------------------------------------------------------------
 Rotational constants (GHZ):      3.4318565      0.5720456      0.4933685
 Standard basis: VSTO-6G (5D, 7F)
 There are    54 symmetry adapted basis functions of A   symmetry.
 Integral buffers will be    262144 words long.
 Regular integral format.
 Two-electron integral symmetry is turned off.
    54 basis functions,   324 primitive gaussians,    54 cartesian basis functions
    28 alpha electrons       28 beta electrons
       nuclear repulsion energy       278.4621243245 Hartrees.
 ------------------------------------------------------------------------------
 Polarizable Continuum Model (PCM)
 =================================
 Model                : C-PCM.
 Atomic radii         : UFF (Universal Force Field).
 Polarization charges : Total charges.
 Charge compensation  : None.
 Solution method      : Matrix inversion.
 Cavity type          : Scaled VdW (van der Waals Surface) (Alpha=1.100).
 Cavity algorithm     : GePol (No added spheres)
                        Default sphere list used, NSphG=   21.
                        Lebedev-Laikov grids with approx.  5.0 points / Ang**2.
                        Smoothing algorithm: Karplus/York (Gamma=1.0000).
                        Polarization charges: spherical gaussians, with
                                              point-specific exponents (IZeta= 3).
                        Self-potential: point-specific (ISelfS= 7).
                        Self-field    : sphere-specific E.n sum rule (ISelfD= 2).
 Solvent              : Acetonitrile, Eps=  35.688000 Eps(inf)=   1.806874
 ------------------------------------------------------------------------------
 Do NDO integrals.
 One-electron integrals computed using PRISM.
 Generate ZINDO/S integrals.
 NDO Nuclear repulsion=   204.155264430367 Hartrees.
 NBasis=    54 RedAO= F  NBF=    54
 NBsUse=    54 1.00D-04 NBFU=    54
 DipDrv:  will hold  3 matrices at once.
 Simple Huckel Guess.
 Initial guess orbital symmetries:
       Occupied  (A) (A) (A) (A) (A) (A) (A) (A) (A) (A) (A) (A)
                 (A) (A) (A) (A) (A) (A) (A) (A) (A) (A) (A) (A)
                 (A) (A) (A) (A)
       Virtual   (A) (A) (A) (A) (A) (A) (A) (A) (A) (A) (A) (A)
                 (A) (A) (A) (A) (A) (A) (A) (A) (A) (A) (A) (A)
                 (A) (A)
 The electronic state of the initial guess is 1-A.
 Requested convergence on RMS density matrix=1.00D-08 within 128 cycles.
 Requested convergence on MAX density matrix=1.00D-06.
 Requested convergence on             energy=1.00D-06.
 No special actions if energy rises.
 Overlap will be assumed to be unity.
 Error on total polarization charges = -0.00016
 SCF Done:  E(RZINDO/S) =  -74.7292686218     A.U. after   15 cycles
             Convg  =    0.4378D-08             -V/T =  0.8547
 Range of M.O.s used for correlation:     1    54
 NBasis=    54 NAE=    28 NBE=    28 NFC=     0 NFV=     0
 NROrb=     54 NOA=    28 NOB=    28 NVA=    26 NVB=    26
 NEqPCM:  Using non-equilibrium solvation (IEInf=1, Eps=  35.6880, EpsInf=   1.8069)
 Orbital symmetries:
       Occupied  (A) (A) (A) (A) (A) (A) (A) (A) (A) (A) (A) (A)
                 (A) (A) (A) (A) (A) (A) (A) (A) (A) (A) (A) (A)
                 (A) (A) (A) (A)
       Virtual   (A) (A) (A) (A) (A) (A) (A) (A) (A) (A) (A) (A)
                 (A) (A) (A) (A) (A) (A) (A) (A) (A) (A) (A) (A)
                 (A) (A)
    40 initial guesses have been made.
 Convergence on wavefunction:    0.001000000000000
 Iteration     1 Dimension    40 NMult    40
 CISAX will form    40 AO SS matrices at one time.
 New state      3 was old state      4
 New state      4 was old state      3
 New state      6 was old state      8
 New state      7 was old state     14
 New state      8 was old state      6
 New state      9 was old state     10
 New state     10 was old state     16
 Iteration     2 Dimension    80 NMult    80
 New state      6 was old state      7
 New state      7 was old state      8
 New state      8 was old state      6
 No map to state     10
 Iteration     3 Dimension    90 NMult    90
 Iteration     4 Dimension   100 NMult   100
 Iteration     5 Dimension   105 NMult   105
 ***********************************************************************
 Excited states from <AA,BB:AA,BB> singles matrix:
 ***********************************************************************
 
 Ground to excited state transition electric dipole moments (Au):
       state          X           Y           Z        Dip. S.      Osc.
         1         2.7964      0.0000     -0.0002      7.8198      0.7289
         2         0.0001     -0.6253      0.0000      0.3910      0.0399
         3         0.0000      0.0000      0.0000      0.0000      0.0000
         4         0.0001     -2.1066     -0.0001      4.4379      0.5527
         5         0.1735      0.0001      0.0002      0.0301      0.0039
         6         0.0000      0.0000      0.0000      0.0000      0.0000
         7        -1.9742      0.0000      0.0001      3.8973      0.5371
         8         0.0000      0.0000     -0.1310      0.0172      0.0024
         9         0.0001      0.0000     -0.0905      0.0082      0.0012
        10         0.4298      0.0001      0.0001      0.1848      0.0285
 Ground to excited state transition velocity dipole moments (Au):
       state          X           Y           Z        Dip. S.      Osc.
         1        -0.3066      0.0000      0.0000      0.0940      0.4481
         2         0.0000      0.0644      0.0000      0.0041      0.0180
         3         0.0000      0.0000      0.0000      0.0000      0.0000
         4         0.0000      0.2732      0.0000      0.0746      0.2663
         5        -0.0079      0.0000      0.0000      0.0001      0.0002
         6         0.0000      0.0000      0.0000      0.0000      0.0000
         7         0.3113      0.0000      0.0000      0.0969      0.3124
         8         0.0000      0.0000     -0.0382      0.0015      0.0046
         9         0.0000      0.0000      0.0424      0.0018      0.0054
        10        -0.0582      0.0000      0.0000      0.0034      0.0098
 Ground to excited state transition magnetic dipole moments (Au):
       state          X           Y           Z
         1         0.0000     -0.0001      0.0001
         2        -0.0001      0.0000     -0.3619
         3        -0.1547      0.0000      0.0002
         4        -0.0001      0.0000     -0.2146
         5         0.0000      0.0000      0.0000
         6        -0.0818      0.0000      0.0000
         7         0.0000     -0.0001      0.0001
         8         0.0000      0.0759      0.0000
         9         0.0000     -0.1709      0.0000
        10         0.0000      0.0002      0.0000
 <0|del|b> * <b|rxdel|0> + <0|del|b> * <b|delr+rdel|0>
 Rotatory Strengths (R) in cgs (10**-40 erg-esu-cm/Gauss)
       state          XX          YY          ZZ    R(velocity)
         1         0.0000     -0.0045      0.0149      0.0035
 Total R(velocity) tensor for State=          1
                 1             2             3 
      1   0.743468D-05 -0.198295D+00  0.689139D-01
      2  -0.490099D-02 -0.445942D-02 -0.819945D+02
      3  -0.406771D-03  0.243815D+02  0.148545D-01
 R(velocity) tensor in inp. orien. for State=          1
                 1             2             3 
      1   0.744386D-05 -0.198295D+00  0.689177D-01
      2  -0.490099D-02 -0.445943D-02 -0.819945D+02
      3  -0.407872D-03  0.243815D+02  0.148545D-01
         2         0.0004     -0.0042      0.0049      0.0004
 Total R(velocity) tensor for State=          2
                 1             2             3 
      1   0.386891D-03  0.000000D+00  0.795746D-03
      2   0.187984D-01 -0.415695D-02  0.641877D+02
      3   0.214115D-04  0.000000D+00  0.488551D-02
 R(velocity) tensor in inp. orien. for State=          2
                 1             2             3 
      1   0.386890D-03  0.000000D+00  0.792845D-03
      2   0.187984D-01 -0.415695D-02  0.641877D+02
      3   0.214115D-04  0.000000D+00  0.488551D-02
         3         0.0000     -0.0004     -0.0006     -0.0003
 Total R(velocity) tensor for State=          3
                 1             2             3 
      1   0.000000D+00  0.000000D+00  0.000000D+00
      2  -0.244551D-02 -0.408477D-03  0.000000D+00
      3   0.363338D-03  0.000000D+00 -0.557815D-03
 R(velocity) tensor in inp. orien. for State=          3
                 1             2             3 
      1   0.000000D+00  0.000000D+00  0.000000D+00
      2  -0.244551D-02 -0.408477D-03  0.000000D+00
      3   0.363338D-03  0.000000D+00 -0.557815D-03
         4        -0.0104      0.0030     -0.0071     -0.0049
 Total R(velocity) tensor for State=          4
                 1             2             3 
      1  -0.104207D-01  0.209938D-05 -0.426947D-01
      2   0.499656D-01  0.295224D-02 -0.486913D+02
      3  -0.696223D-03  0.000000D+00 -0.712162D-02
 R(velocity) tensor in inp. orien. for State=          4
                 1             2             3 
      1  -0.104207D-01  0.209877D-05 -0.426925D-01
      2   0.499656D-01  0.295225D-02 -0.486913D+02
      3  -0.696223D-03  0.000000D+00 -0.712162D-02
         5         0.0000      0.0001     -0.0007     -0.0002
 Total R(velocity) tensor for State=          5
                 1             2             3 
      1  -0.134297D-05  0.990536D-01 -0.260998D-01
      2   0.184809D-01  0.894994D-04 -0.417751D+01
      3  -0.585919D-03  0.499363D+00 -0.665319D-03
 R(velocity) tensor in inp. orien. for State=          5
                 1             2             3 
      1  -0.134828D-05  0.990536D-01 -0.260996D-01
      2   0.184809D-01  0.895047D-04 -0.417751D+01
      3  -0.585942D-03  0.499363D+00 -0.665319D-03
         6         0.0000      0.0000     -0.0005     -0.0002
 Total R(velocity) tensor for State=          6
                 1             2             3 
      1   0.000000D+00  0.000000D+00  0.000000D+00
      2  -0.228540D-03 -0.443292D-04  0.000000D+00
      3   0.495281D-03  0.000000D+00 -0.526363D-03
 R(velocity) tensor in inp. orien. for State=          6
                 1             2             3 
      1   0.000000D+00  0.000000D+00  0.000000D+00
      2  -0.228540D-03 -0.443292D-04  0.000000D+00
      3   0.495281D-03  0.000000D+00 -0.526363D-03
         7         0.0000      0.0039      0.0041      0.0027
 Total R(velocity) tensor for State=          7
                 1             2             3 
      1  -0.175058D-05  0.100193D+00 -0.262912D-01
      2   0.769613D-04  0.390348D-02  0.229493D+01
      3  -0.212928D-04  0.247206D+01  0.405106D-02
 R(velocity) tensor in inp. orien. for State=          7
                 1             2             3 
      1  -0.175511D-05  0.100193D+00 -0.262913D-01
      2   0.769611D-04  0.390349D-02  0.229493D+01
      3  -0.214045D-04  0.247206D+01  0.405106D-02
         8         0.0007     -0.0012      0.0011      0.0002
 Total R(velocity) tensor for State=          8
                 1             2             3 
      1   0.696999D-03  0.876818D-02 -0.161306D-05
      2  -0.278569D-02 -0.116886D-02  0.000000D+00
      3   0.395925D-03 -0.559141D+01  0.107350D-02
 R(velocity) tensor in inp. orien. for State=          8
                 1             2             3 
      1   0.696999D-03  0.876818D-02 -0.161306D-05
      2  -0.278569D-02 -0.116886D-02  0.000000D+00
      3   0.396178D-03 -0.559141D+01  0.107350D-02
         9         0.0005      0.0009      0.0003      0.0006
 Total R(velocity) tensor for State=          9
                 1             2             3 
      1   0.481212D-03 -0.299632D-01  0.401177D-05
      2  -0.787592D-03  0.891735D-03  0.000000D+00
      3   0.331148D-03 -0.234948D+01  0.323755D-03
 R(velocity) tensor in inp. orien. for State=          9
                 1             2             3 
      1   0.481213D-03 -0.299632D-01  0.401177D-05
      2  -0.787592D-03  0.891734D-03  0.000000D+00
      3   0.331254D-03 -0.234948D+01  0.323755D-03
        10         0.0000      0.0031     -0.0028      0.0001
 Total R(velocity) tensor for State=         10
                 1             2             3 
      1  -0.502277D-05  0.401428D-02 -0.216880D-01
      2  -0.795676D-02  0.306834D-02 -0.408878D+02
      3   0.700714D-03 -0.350729D+01 -0.277149D-02
 R(velocity) tensor in inp. orien. for State=         10
                 1             2             3 
      1  -0.502260D-05  0.401428D-02 -0.216861D-01
      2  -0.795676D-02  0.306834D-02 -0.408878D+02
      3   0.700873D-03 -0.350729D+01 -0.277149D-02
 1/2[<0|r|b>*<b|rxdel|0> + (<0|rxdel|b>*<b|r|0>)*]
 Rotatory Strengths (R) in cgs (10**-40 erg-esu-cm/Gauss)
       state          XX          YY          ZZ     R(length)     R(au)
         1         0.0133      0.0000      0.0000      0.0044      0.0000
         2         0.0000      0.0120     -0.0106      0.0005      0.0000
         3        -0.0006      0.0000      0.0000     -0.0002      0.0000
         4         0.0000     -0.0017     -0.0167     -0.0061      0.0000
         5        -0.0025      0.0000      0.0000     -0.0008      0.0000
         6        -0.0003      0.0000      0.0000     -0.0001      0.0000
         7         0.0104      0.0000      0.0000      0.0035      0.0000
         8         0.0000     -0.0004     -0.0018     -0.0007      0.0000
         9         0.0000      0.0031      0.0023      0.0018      0.0000
        10         0.0005      0.0000      0.0000      0.0002      0.0000
  1/2[<0|del|b>*<b|r|0> + (<0|r|b>*<b|del|0>)*] (Au)
       state          X           Y           Z        Dip. S.   Osc.(frdel)
         1        -0.8573      0.0000      0.0000      0.8573      0.5715
         2         0.0000     -0.0402      0.0000      0.0402      0.0268
         3         0.0000      0.0000      0.0000      0.0000      0.0000
         4         0.0000     -0.5754      0.0000      0.5754      0.3836
         5        -0.0014      0.0000      0.0000      0.0014      0.0009
         6         0.0000      0.0000      0.0000      0.0000      0.0000
         7        -0.6145      0.0000      0.0000      0.6145      0.4096
         8         0.0000      0.0000      0.0050     -0.0050     -0.0033
         9         0.0000      0.0000     -0.0038      0.0038      0.0026
        10        -0.0250      0.0000      0.0000      0.0250      0.0167
 Ground to excited state transition densities written to RWF  633

 Excitation energies and oscillator strengths:
 
 Excited State   1:      Singlet-A      3.8045 eV  325.89 nm  f=0.7289  <S**2>=0.000
      28 -> 29         0.68467
 This state for optimization and/or second-order correction.
 Copying the excited state density for this state as the 1-particle RhoCI density.
 
 Excited State   2:      Singlet-A      4.1657 eV  297.63 nm  f=0.0399  <S**2>=0.000
      27 -> 29        -0.32030
      28 -> 30         0.61527
 
 Excited State   3:      Singlet-A      4.7694 eV  259.96 nm  f=0.0000  <S**2>=0.000
      20 -> 31        -0.11087
      24 -> 31        -0.25967
      25 -> 29         0.14787
      25 -> 32         0.11860
      26 -> 31        -0.30434
      28 -> 31         0.52531
 
 Excited State   4:      Singlet-A      5.0834 eV  243.90 nm  f=0.5527  <S**2>=0.000
      27 -> 29         0.60569
      27 -> 32        -0.11472
      28 -> 30         0.32917
 
 Excited State   5:      Singlet-A      5.3246 eV  232.85 nm  f=0.0039  <S**2>=0.000
      23 -> 31         0.12382
      24 -> 29        -0.13555
      24 -> 32        -0.10743
      25 -> 31         0.24196
      26 -> 29        -0.30509
      28 -> 32         0.51093
 
 Excited State   6:      Singlet-A      5.4042 eV  229.42 nm  f=0.0000  <S**2>=0.000
      23 -> 29         0.19440
      23 -> 32         0.19865
      25 -> 29         0.47627
      25 -> 32         0.34188
      25 -> 35        -0.10638
      28 -> 31        -0.22217
 
 Excited State   7:      Singlet-A      5.6254 eV  220.40 nm  f=0.5371  <S**2>=0.000
      26 -> 29        -0.12337
      27 -> 30         0.67804
 
 Excited State   8:      Singlet-A      5.6942 eV  217.74 nm  f=0.0024  <S**2>=0.000
      28 -> 33         0.62555
      28 -> 34        -0.27285
 
 Excited State   9:      Singlet-A      6.0873 eV  203.68 nm  f=0.0012  <S**2>=0.000
      26 -> 33        -0.18605
      28 -> 33         0.26093
      28 -> 34         0.60936
 
 Excited State  10:      Singlet-A      6.2915 eV  197.07 nm  f=0.0285  <S**2>=0.000
      20 -> 29         0.10618
      23 -> 31        -0.15620
      24 -> 29         0.20339
      24 -> 32         0.15585
      25 -> 31        -0.29656
      26 -> 32         0.15516
      28 -> 29         0.10268
      28 -> 32         0.23778
      28 -> 35         0.44501
 SavETr:  write IOETrn=   770 NScale= 10 NData=  16 NLR=1 LETran=     180.

 **********************************************************************

            Population analysis using the SCF density.

 **********************************************************************

 Orbital symmetries:
       Occupied  (A) (A) (A) (A) (A) (A) (A) (A) (A) (A) (A) (A)
                 (A) (A) (A) (A) (A) (A) (A) (A) (A) (A) (A) (A)
                 (A) (A) (A) (A)
       Virtual   (A) (A) (A) (A) (A) (A) (A) (A) (A) (A) (A) (A)
                 (A) (A) (A) (A) (A) (A) (A) (A) (A) (A) (A) (A)
                 (A) (A)
 The electronic state is 1-A.
 Alpha  occ. eigenvalues --   -1.69052  -1.56300  -1.38574  -1.27476  -1.22456
 Alpha  occ. eigenvalues --   -1.16231  -1.07210  -0.93466  -0.90376  -0.87095
 Alpha  occ. eigenvalues --   -0.74270  -0.73172  -0.67735  -0.63445  -0.60689
 Alpha  occ. eigenvalues --   -0.58284  -0.57884  -0.55452  -0.53408  -0.53343
 Alpha  occ. eigenvalues --   -0.50675  -0.48335  -0.47041  -0.46652  -0.43499
 Alpha  occ. eigenvalues --   -0.38789  -0.34707  -0.29606
 Alpha virt. eigenvalues --   -0.00993   0.01855   0.04508   0.06171   0.08321
 Alpha virt. eigenvalues --    0.10394   0.10660   0.12953   0.13588   0.15822
 Alpha virt. eigenvalues --    0.16483   0.19891   0.20501   0.24588   0.25082
 Alpha virt. eigenvalues --    0.25218   0.25945   0.25973   0.27548   0.32334
 Alpha virt. eigenvalues --    0.35556   0.39794   0.41859   0.44921   0.47603
 Alpha virt. eigenvalues --    0.52995
          Condensed to atoms (all electrons):
              1          2          3          4          5          6
     1  C    4.063837   0.000000   0.000000   0.000000   0.000000   0.000000
     2  C    0.000000   3.994101   0.000000   0.000000   0.000000   0.000000
     3  C    0.000000   0.000000   4.001661   0.000000   0.000000   0.000000
     4  C    0.000000   0.000000   0.000000   3.994097   0.000000   0.000000
     5  C    0.000000   0.000000   0.000000   0.000000   4.063843   0.000000
     6  C    0.000000   0.000000   0.000000   0.000000   0.000000   3.852143
     7  H    0.000000   0.000000   0.000000   0.000000   0.000000   0.000000
     8  H    0.000000   0.000000   0.000000   0.000000   0.000000   0.000000
     9  H    0.000000   0.000000   0.000000   0.000000   0.000000   0.000000
    10  H    0.000000   0.000000   0.000000   0.000000   0.000000   0.000000
    11  C    0.000000   0.000000   0.000000   0.000000   0.000000   0.000000
    12  N    0.000000   0.000000   0.000000   0.000000   0.000000   0.000000
    13  N    0.000000   0.000000   0.000000   0.000000   0.000000   0.000000
    14  C    0.000000   0.000000   0.000000   0.000000   0.000000   0.000000
    15  H    0.000000   0.000000   0.000000   0.000000   0.000000   0.000000
    16  H    0.000000   0.000000   0.000000   0.000000   0.000000   0.000000
    17  H    0.000000   0.000000   0.000000   0.000000   0.000000   0.000000
    18  C    0.000000   0.000000   0.000000   0.000000   0.000000   0.000000
    19  H    0.000000   0.000000   0.000000   0.000000   0.000000   0.000000
    20  H    0.000000   0.000000   0.000000   0.000000   0.000000   0.000000
    21  H    0.000000   0.000000   0.000000   0.000000   0.000000   0.000000
              7          8          9         10         11         12
     1  C    0.000000   0.000000   0.000000   0.000000   0.000000   0.000000
     2  C    0.000000   0.000000   0.000000   0.000000   0.000000   0.000000
     3  C    0.000000   0.000000   0.000000   0.000000   0.000000   0.000000
     4  C    0.000000   0.000000   0.000000   0.000000   0.000000   0.000000
     5  C    0.000000   0.000000   0.000000   0.000000   0.000000   0.000000
     6  C    0.000000   0.000000   0.000000   0.000000   0.000000   0.000000
     7  H    0.954122   0.000000   0.000000   0.000000   0.000000   0.000000
     8  H    0.000000   0.953632   0.000000   0.000000   0.000000   0.000000
     9  H    0.000000   0.000000   0.953631   0.000000   0.000000   0.000000
    10  H    0.000000   0.000000   0.000000   0.954126   0.000000   0.000000
    11  C    0.000000   0.000000   0.000000   0.000000   3.755893   0.000000
    12  N    0.000000   0.000000   0.000000   0.000000   0.000000   5.483704
    13  N    0.000000   0.000000   0.000000   0.000000   0.000000   0.000000
    14  C    0.000000   0.000000   0.000000   0.000000   0.000000   0.000000
    15  H    0.000000   0.000000   0.000000   0.000000   0.000000   0.000000
    16  H    0.000000   0.000000   0.000000   0.000000   0.000000   0.000000
    17  H    0.000000   0.000000   0.000000   0.000000   0.000000   0.000000
    18  C    0.000000   0.000000   0.000000   0.000000   0.000000   0.000000
    19  H    0.000000   0.000000   0.000000   0.000000   0.000000   0.000000
    20  H    0.000000   0.000000   0.000000   0.000000   0.000000   0.000000
    21  H    0.000000   0.000000   0.000000   0.000000   0.000000   0.000000
             13         14         15         16         17         18
     1  C    0.000000   0.000000   0.000000   0.000000   0.000000   0.000000
     2  C    0.000000   0.000000   0.000000   0.000000   0.000000   0.000000
     3  C    0.000000   0.000000   0.000000   0.000000   0.000000   0.000000
     4  C    0.000000   0.000000   0.000000   0.000000   0.000000   0.000000
     5  C    0.000000   0.000000   0.000000   0.000000   0.000000   0.000000
     6  C    0.000000   0.000000   0.000000   0.000000   0.000000   0.000000
     7  H    0.000000   0.000000   0.000000   0.000000   0.000000   0.000000
     8  H    0.000000   0.000000   0.000000   0.000000   0.000000   0.000000
     9  H    0.000000   0.000000   0.000000   0.000000   0.000000   0.000000
    10  H    0.000000   0.000000   0.000000   0.000000   0.000000   0.000000
    11  C    0.000000   0.000000   0.000000   0.000000   0.000000   0.000000
    12  N    0.000000   0.000000   0.000000   0.000000   0.000000   0.000000
    13  N    5.239910   0.000000   0.000000   0.000000   0.000000   0.000000
    14  C    0.000000   3.960096   0.000000   0.000000   0.000000   0.000000
    15  H    0.000000   0.000000   0.968137   0.000000   0.000000   0.000000
    16  H    0.000000   0.000000   0.000000   0.971271   0.000000   0.000000
    17  H    0.000000   0.000000   0.000000   0.000000   0.968149   0.000000
    18  C    0.000000   0.000000   0.000000   0.000000   0.000000   3.960097
    19  H    0.000000   0.000000   0.000000   0.000000   0.000000   0.000000
    20  H    0.000000   0.000000   0.000000   0.000000   0.000000   0.000000
    21  H    0.000000   0.000000   0.000000   0.000000   0.000000   0.000000
             19         20         21
     1  C    0.000000   0.000000   0.000000
     2  C    0.000000   0.000000   0.000000
     3  C    0.000000   0.000000   0.000000
     4  C    0.000000   0.000000   0.000000
     5  C    0.000000   0.000000   0.000000
     6  C    0.000000   0.000000   0.000000
     7  H    0.000000   0.000000   0.000000
     8  H    0.000000   0.000000   0.000000
     9  H    0.000000   0.000000   0.000000
    10  H    0.000000   0.000000   0.000000
    11  C    0.000000   0.000000   0.000000
    12  N    0.000000   0.000000   0.000000
    13  N    0.000000   0.000000   0.000000
    14  C    0.000000   0.000000   0.000000
    15  H    0.000000   0.000000   0.000000
    16  H    0.000000   0.000000   0.000000
    17  H    0.000000   0.000000   0.000000
    18  C    0.000000   0.000000   0.000000
    19  H    0.968144   0.000000   0.000000
    20  H    0.000000   0.971268   0.000000
    21  H    0.000000   0.000000   0.968138
 Mulliken atomic charges:
              1
     1  C   -0.063837
     2  C    0.005899
     3  C   -0.001661
     4  C    0.005903
     5  C   -0.063843
     6  C    0.147857
     7  H    0.045878
     8  H    0.046368
     9  H    0.046369
    10  H    0.045874
    11  C    0.244107
    12  N   -0.483704
    13  N   -0.239910
    14  C    0.039904
    15  H    0.031863
    16  H    0.028729
    17  H    0.031851
    18  C    0.039903
    19  H    0.031856
    20  H    0.028732
    21  H    0.031862
 Sum of Mulliken atomic charges =   0.00000
 Mulliken charges with hydrogens summed into heavy atoms:
              1
     1  C   -0.017959
     2  C    0.052266
     3  C   -0.001661
     4  C    0.052272
     5  C   -0.017969
     6  C    0.147857
    11  C    0.244107
    12  N   -0.483704
    13  N   -0.239910
    14  C    0.132347
    18  C    0.132353
 Sum of Mulliken charges with hydrogens summed into heavy atoms =   0.00000
 Charge=              0.0000 electrons
 Dipole moment (field-independent basis, Debye):
    X=              8.8946    Y=              0.0000    Z=              0.0023  Tot=              8.8946
 N-N= 2.041552644304D+02 E-N= 0.000000000000D+00  KE=-5.141982247848D+02
 1|1|UNPC-DESKTOP-K2VF0AK|SP|RZINDO|STO-3G|C9H10N2|MELIH|16-Jan-2025|0|
 |# rzindo=(nstates=10) scrf=(cpcm,solvent=acetonitrile) geom=connectiv
 ity||Title Card Required||0,1|C,0,0.185586,-1.215253,-0.000032|C,0,-1.
 203011,-1.210294,0.000005|C,0,-1.926666,0.000012,0.000035|C,0,-1.20301
 8,1.210298,0.000117|C,0,0.185599,1.215247,0.000104|C,0,0.921341,0.0000
 12,-0.000068|H,0,0.701854,-2.165967,0.000011|H,0,-1.741445,-2.151948,0
 .000025|H,0,-1.741406,2.151977,0.00023|H,0,0.701829,2.165985,0.000264|
 C,0,-3.353159,0.,-0.000005|N,0,-4.529239,-0.000012,-0.000084|N,0,2.305
 899,0.,-0.000374|C,0,3.042937,1.264518,-0.000032|H,0,2.816137,1.867316
 ,0.88991|H,0,4.113024,1.054302,-0.001241|H,0,2.814473,1.868491,-0.8887
 16|C,0,3.042941,-1.264533,0.000184|H,0,2.815083,-1.868325,-0.888785|H,
 0,4.113026,-1.054311,-0.000192|H,0,2.815503,-1.867479,0.88985||Version
 =IA32W-G09RevA.02|State=1-A|HF=-74.7292686|RMSD=4.378e-009|PG=C01 [X(C
 9H10N2)]||@


 CLIMB THE MOUNTAINS AND GET THEIR GOOD TIDINGS.
 NATURE'S PEACE WILL FLOW INTO YOU AS SUNSHINE FLOWS INTO TREES.
 THE WINDS WILL BLOW THEIR OWN FRESHNESS INTO YOU, 
 AND CARES WILL DROP OFF LIKE AUTUMN LEAVES.

                                         -- JOHN MUIR
 Job cpu time:  0 days  0 hours  0 minutes  7.0 seconds.
 File lengths (MBytes):  RWF=    104 Int=      0 D2E=      0 Chk=      3 Scr=      1
 Normal termination of Gaussian 09 at Thu Jan 16 02:42:18 2025.
